<?xml version="1.0" encoding="ISO-8859-1"?>
<modeling>
 <generator>
  <i name="program" type="string">vasp </i>
  <i name="version" type="string">5.4.4.18Apr17-6-g9f103f2a35  </i>
  <i name="subversion" type="string">(build Nov 27 2020 01:32:25) complex            parallel </i>
  <i name="platform" type="string">LinuxIFC </i>
  <i name="date" type="string">2022 09 04 </i>
  <i name="time" type="string">18:19:19 </i>
 </generator>
 <incar>
  <i type="string" name="SYSTEM"> optU0.0</i>
  <i type="string" name="PREC">normal     ! accurate for lc calc and n</i>
  <i type="int" name="ICHARG">    11</i>
  <i type="int" name="IBRION">     2</i>
  <i type="int" name="NSW">     0</i>
  <i type="int" name="ISIF">     3</i>
  <i type="logical" name="LASPH"> T  </i>
  <v type="int" name="KPOINT_BSE">    -1     0     0     0</v>
  <i type="string" name="GGA"> MK</i>
  <i name="PARAM1">      0.12340000</i>
  <i name="PARAM2">      1.00000000</i>
  <i type="logical" name="LUSE_VDW"> T  </i>
  <i name="AGGAC">      0.00000000</i>
  <i type="logical" name="LASPH"> T  </i>
 </incar>
 <structure name="primitive_cell" >
  <crystal>
   <varray name="basis" >
    <v>       2.73211807      -1.57738910       0.00000000 </v>
    <v>       0.00000000       3.15477820       0.00000000 </v>
    <v>       0.00000000       0.00000000      12.05794237 </v>
   </varray>
   <i name="volume">    103.93013667 </i>
   <varray name="rec_basis" >
    <v>       0.36601639      -0.00000000       0.00000000 </v>
    <v>       0.18300820       0.31697949       0.00000000 </v>
    <v>       0.00000000       0.00000000       0.08293289 </v>
   </varray>
  </crystal>
  <varray name="positions" >
   <v>       0.33333333      -0.33333333       0.25000000 </v>
   <v>      -0.33333333       0.33333333       0.11965052 </v>
   <v>      -0.33333333       0.33333333       0.38034948 </v>
  </varray>
 </structure>
 <varray name="primitive_index" >
  <v type="int" >        1 </v>
  <v type="int" >        2 </v>
  <v type="int" >        3 </v>
 </varray>
 <kpoints>
  <generation param="listgenerated">
   <i name="divisions" type="int">      50 </i>
   <v>       0.00000000       0.00000000       0.00000000 </v>
   <v>       0.50000000       0.00000000       0.00000000 </v>
   <v>       0.33330000       0.33330000       0.00000000 </v>
   <v>      -0.00000000      -0.00000000       0.00000000 </v>
  </generation>
  <varray name="kpointlist" >
   <v>       0.00000000       0.00000000       0.00000000 </v>
   <v>       0.01020408       0.00000000       0.00000000 </v>
   <v>       0.02040816       0.00000000       0.00000000 </v>
   <v>       0.03061224       0.00000000       0.00000000 </v>
   <v>       0.04081633       0.00000000       0.00000000 </v>
   <v>       0.05102041       0.00000000       0.00000000 </v>
   <v>       0.06122449       0.00000000       0.00000000 </v>
   <v>       0.07142857       0.00000000       0.00000000 </v>
   <v>       0.08163265       0.00000000       0.00000000 </v>
   <v>       0.09183673       0.00000000       0.00000000 </v>
   <v>       0.10204082       0.00000000       0.00000000 </v>
   <v>       0.11224490       0.00000000       0.00000000 </v>
   <v>       0.12244898       0.00000000       0.00000000 </v>
   <v>       0.13265306       0.00000000       0.00000000 </v>
   <v>       0.14285714       0.00000000       0.00000000 </v>
   <v>       0.15306122       0.00000000       0.00000000 </v>
   <v>       0.16326531       0.00000000       0.00000000 </v>
   <v>       0.17346939       0.00000000       0.00000000 </v>
   <v>       0.18367347       0.00000000       0.00000000 </v>
   <v>       0.19387755       0.00000000       0.00000000 </v>
   <v>       0.20408163       0.00000000       0.00000000 </v>
   <v>       0.21428571       0.00000000       0.00000000 </v>
   <v>       0.22448980       0.00000000       0.00000000 </v>
   <v>       0.23469388       0.00000000       0.00000000 </v>
   <v>       0.24489796       0.00000000       0.00000000 </v>
   <v>       0.25510204       0.00000000       0.00000000 </v>
   <v>       0.26530612       0.00000000       0.00000000 </v>
   <v>       0.27551020       0.00000000       0.00000000 </v>
   <v>       0.28571429       0.00000000       0.00000000 </v>
   <v>       0.29591837       0.00000000       0.00000000 </v>
   <v>       0.30612245       0.00000000       0.00000000 </v>
   <v>       0.31632653       0.00000000       0.00000000 </v>
   <v>       0.32653061       0.00000000       0.00000000 </v>
   <v>       0.33673469       0.00000000       0.00000000 </v>
   <v>       0.34693878       0.00000000       0.00000000 </v>
   <v>       0.35714286       0.00000000       0.00000000 </v>
   <v>       0.36734694       0.00000000       0.00000000 </v>
   <v>       0.37755102       0.00000000       0.00000000 </v>
   <v>       0.38775510       0.00000000       0.00000000 </v>
   <v>       0.39795918       0.00000000       0.00000000 </v>
   <v>       0.40816327       0.00000000       0.00000000 </v>
   <v>       0.41836735       0.00000000       0.00000000 </v>
   <v>       0.42857143       0.00000000       0.00000000 </v>
   <v>       0.43877551       0.00000000       0.00000000 </v>
   <v>       0.44897959       0.00000000       0.00000000 </v>
   <v>       0.45918367       0.00000000       0.00000000 </v>
   <v>       0.46938776       0.00000000       0.00000000 </v>
   <v>       0.47959184       0.00000000       0.00000000 </v>
   <v>       0.48979592       0.00000000       0.00000000 </v>
   <v>       0.50000000       0.00000000       0.00000000 </v>
   <v>       0.50000000       0.00000000       0.00000000 </v>
   <v>       0.49659796       0.00680204       0.00000000 </v>
   <v>       0.49319592       0.01360408       0.00000000 </v>
   <v>       0.48979388       0.02040612       0.00000000 </v>
   <v>       0.48639184       0.02720816       0.00000000 </v>
   <v>       0.48298980       0.03401020       0.00000000 </v>
   <v>       0.47958776       0.04081224       0.00000000 </v>
   <v>       0.47618571       0.04761429       0.00000000 </v>
   <v>       0.47278367       0.05441633       0.00000000 </v>
   <v>       0.46938163       0.06121837       0.00000000 </v>
   <v>       0.46597959       0.06802041       0.00000000 </v>
   <v>       0.46257755       0.07482245       0.00000000 </v>
   <v>       0.45917551       0.08162449       0.00000000 </v>
   <v>       0.45577347       0.08842653       0.00000000 </v>
   <v>       0.45237143       0.09522857       0.00000000 </v>
   <v>       0.44896939       0.10203061       0.00000000 </v>
   <v>       0.44556735       0.10883265       0.00000000 </v>
   <v>       0.44216531       0.11563469       0.00000000 </v>
   <v>       0.43876327       0.12243673       0.00000000 </v>
   <v>       0.43536122       0.12923878       0.00000000 </v>
   <v>       0.43195918       0.13604082       0.00000000 </v>
   <v>       0.42855714       0.14284286       0.00000000 </v>
   <v>       0.42515510       0.14964490       0.00000000 </v>
   <v>       0.42175306       0.15644694       0.00000000 </v>
   <v>       0.41835102       0.16324898       0.00000000 </v>
   <v>       0.41494898       0.17005102       0.00000000 </v>
   <v>       0.41154694       0.17685306       0.00000000 </v>
   <v>       0.40814490       0.18365510       0.00000000 </v>
   <v>       0.40474286       0.19045714       0.00000000 </v>
   <v>       0.40134082       0.19725918       0.00000000 </v>
   <v>       0.39793878       0.20406122       0.00000000 </v>
   <v>       0.39453673       0.21086327       0.00000000 </v>
   <v>       0.39113469       0.21766531       0.00000000 </v>
   <v>       0.38773265       0.22446735       0.00000000 </v>
   <v>       0.38433061       0.23126939       0.00000000 </v>
   <v>       0.38092857       0.23807143       0.00000000 </v>
   <v>       0.37752653       0.24487347       0.00000000 </v>
   <v>       0.37412449       0.25167551       0.00000000 </v>
   <v>       0.37072245       0.25847755       0.00000000 </v>
   <v>       0.36732041       0.26527959       0.00000000 </v>
   <v>       0.36391837       0.27208163       0.00000000 </v>
   <v>       0.36051633       0.27888367       0.00000000 </v>
   <v>       0.35711429       0.28568571       0.00000000 </v>
   <v>       0.35371224       0.29248776       0.00000000 </v>
   <v>       0.35031020       0.29928980       0.00000000 </v>
   <v>       0.34690816       0.30609184       0.00000000 </v>
   <v>       0.34350612       0.31289388       0.00000000 </v>
   <v>       0.34010408       0.31969592       0.00000000 </v>
   <v>       0.33670204       0.32649796       0.00000000 </v>
   <v>       0.33330000       0.33330000       0.00000000 </v>
   <v>       0.33330000       0.33330000       0.00000000 </v>
   <v>       0.32649796       0.32649796       0.00000000 </v>
   <v>       0.31969592       0.31969592       0.00000000 </v>
   <v>       0.31289388       0.31289388       0.00000000 </v>
   <v>       0.30609184       0.30609184       0.00000000 </v>
   <v>       0.29928980       0.29928980       0.00000000 </v>
   <v>       0.29248776       0.29248776       0.00000000 </v>
   <v>       0.28568571       0.28568571       0.00000000 </v>
   <v>       0.27888367       0.27888367       0.00000000 </v>
   <v>       0.27208163       0.27208163       0.00000000 </v>
   <v>       0.26527959       0.26527959       0.00000000 </v>
   <v>       0.25847755       0.25847755       0.00000000 </v>
   <v>       0.25167551       0.25167551       0.00000000 </v>
   <v>       0.24487347       0.24487347       0.00000000 </v>
   <v>       0.23807143       0.23807143       0.00000000 </v>
   <v>       0.23126939       0.23126939       0.00000000 </v>
   <v>       0.22446735       0.22446735       0.00000000 </v>
   <v>       0.21766531       0.21766531       0.00000000 </v>
   <v>       0.21086327       0.21086327       0.00000000 </v>
   <v>       0.20406122       0.20406122       0.00000000 </v>
   <v>       0.19725918       0.19725918       0.00000000 </v>
   <v>       0.19045714       0.19045714       0.00000000 </v>
   <v>       0.18365510       0.18365510       0.00000000 </v>
   <v>       0.17685306       0.17685306       0.00000000 </v>
   <v>       0.17005102       0.17005102       0.00000000 </v>
   <v>       0.16324898       0.16324898       0.00000000 </v>
   <v>       0.15644694       0.15644694       0.00000000 </v>
   <v>       0.14964490       0.14964490       0.00000000 </v>
   <v>       0.14284286       0.14284286       0.00000000 </v>
   <v>       0.13604082       0.13604082       0.00000000 </v>
   <v>       0.12923878       0.12923878       0.00000000 </v>
   <v>       0.12243673       0.12243673       0.00000000 </v>
   <v>       0.11563469       0.11563469       0.00000000 </v>
   <v>       0.10883265       0.10883265       0.00000000 </v>
   <v>       0.10203061       0.10203061       0.00000000 </v>
   <v>       0.09522857       0.09522857       0.00000000 </v>
   <v>       0.08842653       0.08842653       0.00000000 </v>
   <v>       0.08162449       0.08162449       0.00000000 </v>
   <v>       0.07482245       0.07482245       0.00000000 </v>
   <v>       0.06802041       0.06802041       0.00000000 </v>
   <v>       0.06121837       0.06121837       0.00000000 </v>
   <v>       0.05441633       0.05441633       0.00000000 </v>
   <v>       0.04761429       0.04761429       0.00000000 </v>
   <v>       0.04081224       0.04081224       0.00000000 </v>
   <v>       0.03401020       0.03401020       0.00000000 </v>
   <v>       0.02720816       0.02720816       0.00000000 </v>
   <v>       0.02040612       0.02040612       0.00000000 </v>
   <v>       0.01360408       0.01360408       0.00000000 </v>
   <v>       0.00680204       0.00680204       0.00000000 </v>
   <v>      -0.00000000      -0.00000000       0.00000000 </v>
  </varray>
  <varray name="weights" >
   <v>       0.00666667 </v>
   <v>       0.00666667 </v>
   <v>       0.00666667 </v>
   <v>       0.00666667 </v>
   <v>       0.00666667 </v>
   <v>       0.00666667 </v>
   <v>       0.00666667 </v>
   <v>       0.00666667 </v>
   <v>       0.00666667 </v>
   <v>       0.00666667 </v>
   <v>       0.00666667 </v>
   <v>       0.00666667 </v>
   <v>       0.00666667 </v>
   <v>       0.00666667 </v>
   <v>       0.00666667 </v>
   <v>       0.00666667 </v>
   <v>       0.00666667 </v>
   <v>       0.00666667 </v>
   <v>       0.00666667 </v>
   <v>       0.00666667 </v>
   <v>       0.00666667 </v>
   <v>       0.00666667 </v>
   <v>       0.00666667 </v>
   <v>       0.00666667 </v>
   <v>       0.00666667 </v>
   <v>       0.00666667 </v>
   <v>       0.00666667 </v>
   <v>       0.00666667 </v>
   <v>       0.00666667 </v>
   <v>       0.00666667 </v>
   <v>       0.00666667 </v>
   <v>       0.00666667 </v>
   <v>       0.00666667 </v>
   <v>       0.00666667 </v>
   <v>       0.00666667 </v>
   <v>       0.00666667 </v>
   <v>       0.00666667 </v>
   <v>       0.00666667 </v>
   <v>       0.00666667 </v>
   <v>       0.00666667 </v>
   <v>       0.00666667 </v>
   <v>       0.00666667 </v>
   <v>       0.00666667 </v>
   <v>       0.00666667 </v>
   <v>       0.00666667 </v>
   <v>       0.00666667 </v>
   <v>       0.00666667 </v>
   <v>       0.00666667 </v>
   <v>       0.00666667 </v>
   <v>       0.00666667 </v>
   <v>       0.00666667 </v>
   <v>       0.00666667 </v>
   <v>       0.00666667 </v>
   <v>       0.00666667 </v>
   <v>       0.00666667 </v>
   <v>       0.00666667 </v>
   <v>       0.00666667 </v>
   <v>       0.00666667 </v>
   <v>       0.00666667 </v>
   <v>       0.00666667 </v>
   <v>       0.00666667 </v>
   <v>       0.00666667 </v>
   <v>       0.00666667 </v>
   <v>       0.00666667 </v>
   <v>       0.00666667 </v>
   <v>       0.00666667 </v>
   <v>       0.00666667 </v>
   <v>       0.00666667 </v>
   <v>       0.00666667 </v>
   <v>       0.00666667 </v>
   <v>       0.00666667 </v>
   <v>       0.00666667 </v>
   <v>       0.00666667 </v>
   <v>       0.00666667 </v>
   <v>       0.00666667 </v>
   <v>       0.00666667 </v>
   <v>       0.00666667 </v>
   <v>       0.00666667 </v>
   <v>       0.00666667 </v>
   <v>       0.00666667 </v>
   <v>       0.00666667 </v>
   <v>       0.00666667 </v>
   <v>       0.00666667 </v>
   <v>       0.00666667 </v>
   <v>       0.00666667 </v>
   <v>       0.00666667 </v>
   <v>       0.00666667 </v>
   <v>       0.00666667 </v>
   <v>       0.00666667 </v>
   <v>       0.00666667 </v>
   <v>       0.00666667 </v>
   <v>       0.00666667 </v>
   <v>       0.00666667 </v>
   <v>       0.00666667 </v>
   <v>       0.00666667 </v>
   <v>       0.00666667 </v>
   <v>       0.00666667 </v>
   <v>       0.00666667 </v>
   <v>       0.00666667 </v>
   <v>       0.00666667 </v>
   <v>       0.00666667 </v>
   <v>       0.00666667 </v>
   <v>       0.00666667 </v>
   <v>       0.00666667 </v>
   <v>       0.00666667 </v>
   <v>       0.00666667 </v>
   <v>       0.00666667 </v>
   <v>       0.00666667 </v>
   <v>       0.00666667 </v>
   <v>       0.00666667 </v>
   <v>       0.00666667 </v>
   <v>       0.00666667 </v>
   <v>       0.00666667 </v>
   <v>       0.00666667 </v>
   <v>       0.00666667 </v>
   <v>       0.00666667 </v>
   <v>       0.00666667 </v>
   <v>       0.00666667 </v>
   <v>       0.00666667 </v>
   <v>       0.00666667 </v>
   <v>       0.00666667 </v>
   <v>       0.00666667 </v>
   <v>       0.00666667 </v>
   <v>       0.00666667 </v>
   <v>       0.00666667 </v>
   <v>       0.00666667 </v>
   <v>       0.00666667 </v>
   <v>       0.00666667 </v>
   <v>       0.00666667 </v>
   <v>       0.00666667 </v>
   <v>       0.00666667 </v>
   <v>       0.00666667 </v>
   <v>       0.00666667 </v>
   <v>       0.00666667 </v>
   <v>       0.00666667 </v>
   <v>       0.00666667 </v>
   <v>       0.00666667 </v>
   <v>       0.00666667 </v>
   <v>       0.00666667 </v>
   <v>       0.00666667 </v>
   <v>       0.00666667 </v>
   <v>       0.00666667 </v>
   <v>       0.00666667 </v>
   <v>       0.00666667 </v>
   <v>       0.00666667 </v>
   <v>       0.00666667 </v>
   <v>       0.00666667 </v>
   <v>       0.00666667 </v>
   <v>       0.00666667 </v>
   <v>       0.00666667 </v>
  </varray>
 </kpoints>
 <parameters>
  <separator name="general" >
   <i type="string" name="SYSTEM">optU0.0</i>
   <i type="logical" name="LCOMPAT"> F  </i>
  </separator>
  <separator name="electronic" >
   <i type="string" name="PREC">normal</i>
   <i name="ENMAX">    258.68900000</i>
   <i name="ENAUG">    345.27800000</i>
   <i name="EDIFF">      0.00010000</i>
   <i type="int" name="IALGO">    38</i>
   <i type="int" name="IWAVPR">    10</i>
   <i type="int" name="NBANDS">    96</i>
   <i name="NELECT">     18.00000000</i>
   <i type="int" name="TURBO">     0</i>
   <i type="int" name="IRESTART">     0</i>
   <i type="int" name="NREBOOT">     0</i>
   <i type="int" name="NMIN">     0</i>
   <i name="EREF">      0.00000000</i>
   <separator name="electronic smearing" >
    <i type="int" name="ISMEAR">     1</i>
    <i name="SIGMA">      0.20000000</i>
    <i name="KSPACING">      0.50000000</i>
    <i type="logical" name="KGAMMA"> T  </i>
   </separator>
   <separator name="electronic projectors" >
    <i type="logical" name="LREAL"> F  </i>
    <v name="ROPT">      0.00000000      0.00000000</v>
    <i type="int" name="LMAXPAW">  -100</i>
    <i type="int" name="LMAXMIX">     2</i>
    <i type="logical" name="NLSPLINE"> F  </i>
   </separator>
   <separator name="electronic startup" >
    <i type="int" name="ISTART">     1</i>
    <i type="int" name="ICHARG">    11</i>
    <i type="int" name="INIWAV">     1</i>
   </separator>
   <separator name="electronic spin" >
    <i type="int" name="ISPIN">     1</i>
    <i type="logical" name="LNONCOLLINEAR"> F  </i>
    <v name="MAGMOM">      1.00000000      1.00000000      1.00000000</v>
    <i name="NUPDOWN">     -1.00000000</i>
    <i type="logical" name="LSORBIT"> F  </i>
    <v name="SAXIS">      0.00000000      0.00000000      1.00000000</v>
    <i type="logical" name="LSPIRAL"> F  </i>
    <v name="QSPIRAL">      0.00000000      0.00000000      0.00000000</v>
    <i type="logical" name="LZEROZ"> F  </i>
   </separator>
   <separator name="electronic exchange-correlation" >
    <i type="logical" name="LASPH"> T  </i>
    <i type="logical" name="LMETAGGA"> F  </i>
   </separator>
   <separator name="electronic convergence" >
    <i type="int" name="NELM">    60</i>
    <i type="int" name="NELMDL">     0</i>
    <i type="int" name="NELMIN">     2</i>
    <i name="ENINI">    258.68900000</i>
    <separator name="electronic convergence detail" >
     <i type="logical" name="LDIAG"> T  </i>
     <i type="logical" name="LSUBROT"> F  </i>
     <i name="WEIMIN">      0.00000000</i>
     <i name="EBREAK">      0.00000026</i>
     <i name="DEPER">      0.30000000</i>
     <i type="int" name="NRMM">     4</i>
     <i name="TIME">      0.40000000</i>
    </separator>
   </separator>
   <separator name="electronic mixer" >
    <i name="AMIX">      0.40000000</i>
    <i name="BMIX">      1.00000000</i>
    <i name="AMIN">      0.10000000</i>
    <i name="AMIX_MAG">      1.60000000</i>
    <i name="BMIX_MAG">      1.00000000</i>
    <separator name="electronic mixer details" >
     <i type="int" name="IMIX">     4</i>
     <i type="logical" name="MIXFIRST"> F  </i>
     <i type="int" name="MAXMIX">   -45</i>
     <i name="WC">    100.00000000</i>
     <i type="int" name="INIMIX">     1</i>
     <i type="int" name="MIXPRE">     1</i>
     <i type="int" name="MREMOVE">     5</i>
    </separator>
   </separator>
   <separator name="electronic dipolcorrection" >
    <i type="logical" name="LDIPOL"> F  </i>
    <i type="logical" name="LMONO"> F  </i>
    <i type="int" name="IDIPOL">     0</i>
    <i name="EPSILON">      1.00000000</i>
    <v name="DIPOL">   -100.00000000   -100.00000000   -100.00000000</v>
    <i name="EFIELD">      0.00000000</i>
   </separator>
  </separator>
  <separator name="grids" >
   <i type="int" name="NGX">    12</i>
   <i type="int" name="NGY">    12</i>
   <i type="int" name="NGZ">    48</i>
   <i type="int" name="NGXF">    24</i>
   <i type="int" name="NGYF">    24</i>
   <i type="int" name="NGZF">    96</i>
   <i type="logical" name="ADDGRID"> F  </i>
  </separator>
  <separator name="ionic" >
   <i type="int" name="NSW">     0</i>
   <i type="int" name="IBRION">    -1</i>
   <i type="int" name="MDALGO">     0</i>
   <i type="int" name="ISIF">     3</i>
   <i name="PSTRESS">      0.00000000</i>
   <i name="EDIFFG">      0.00100000</i>
   <i type="int" name="NFREE">     1</i>
   <i name="POTIM">      0.50000000</i>
   <i name="SMASS">     -3.00000000</i>
   <i name="SCALEE">      1.00000000</i>
  </separator>
  <separator name="ionic md" >
   <i name="TEBEG">      0.00010000</i>
   <i name="TEEND">      0.00010000</i>
   <i type="int" name="NBLOCK">     1</i>
   <i type="int" name="KBLOCK">     1</i>
   <i type="int" name="NPACO">   256</i>
   <i name="APACO">     16.00000000</i>
  </separator>
  <separator name="symmetry" >
   <i type="int" name="ISYM">     2</i>
   <i name="SYMPREC">      0.00001000</i>
  </separator>
  <separator name="dos" >
   <i type="int" name="LORBIT">     0</i>
   <v name="RWIGS">     -1.00000000     -1.00000000</v>
   <i type="int" name="NEDOS">   301</i>
   <i name="EMIN">     10.00000000</i>
   <i name="EMAX">    -10.00000000</i>
   <i name="EFERMI">      0.00000000</i>
  </separator>
  <separator name="writing" >
   <i type="int" name="NWRITE">     2</i>
   <i type="logical" name="LWAVE"> T  </i>
   <i type="logical" name="LDOWNSAMPLE"> F  </i>
   <i type="logical" name="LCHARG"> T  </i>
   <i type="logical" name="LPARD"> F  </i>
   <i type="logical" name="LVTOT"> F  </i>
   <i type="logical" name="LVHAR"> F  </i>
   <i type="logical" name="LELF"> F  </i>
   <i type="logical" name="LOPTICS"> F  </i>
   <v name="STM">      0.00000000      0.00000000      0.00000000      0.00000000      0.00000000      0.00000000      0.00000000</v>
  </separator>
  <separator name="performance" >
   <i type="int" name="NPAR">    96</i>
   <i type="int" name="NSIM">     4</i>
   <i type="int" name="NBLK">    -1</i>
   <i type="logical" name="LPLANE"> T  </i>
   <i type="logical" name="LSCALAPACK"> T  </i>
   <i type="logical" name="LSCAAWARE"> T  </i>
   <i type="logical" name="LSCALU"> F  </i>
   <i type="logical" name="LASYNC"> F  </i>
   <i type="logical" name="LORBITALREAL"> F  </i>
  </separator>
  <separator name="miscellaneous" >
   <i type="int" name="IDIOT">     3</i>
   <i type="int" name="ISPECIAL">     0</i>
   <i type="logical" name="LMUSIC"> F  </i>
   <v name="POMASS">     95.94000000     32.06600000</v>
   <v name="DARWINR">      0.00000000      0.00000000</v>
   <v name="DARWINV">      1.00000000      1.00000000</v>
   <i type="logical" name="LCORR"> T  </i>
  </separator>
  <i type="logical" name="GGA_COMPAT"> T  </i>
  <i type="logical" name="LBERRY"> F  </i>
  <i type="int" name="ICORELEVEL">     0</i>
  <i type="logical" name="LDAU"> F  </i>
  <i type="int" name="I_CONSTRAINED_M">     0</i>
  <separator name="electronic exchange-correlation" >
   <i type="string" name="GGA">MK</i>
   <i type="int" name="VOSKOWN">     0</i>
   <i type="logical" name="LHFCALC"> F  </i>
   <i type="string" name="PRECFOCK"></i>
   <i type="logical" name="LSYMGRAD"> F  </i>
   <i type="logical" name="LHFONE"> F  </i>
   <i type="logical" name="LRHFCALC"> F  </i>
   <i type="logical" name="LTHOMAS"> F  </i>
   <i type="logical" name="LMODELHF"> F  </i>
   <i name="ENCUT4O">     -1.00000000</i>
   <i type="int" name="EXXOEP">     0</i>
   <i type="int" name="FOURORBIT">     0</i>
   <i name="AEXX">      0.00000000</i>
   <i name="HFALPHA">      0.00000000</i>
   <i name="MCALPHA">      0.00000000</i>
   <i name="ALDAX">      1.00000000</i>
   <i name="AGGAX">      1.00000000</i>
   <i name="ALDAC">      1.00000000</i>
   <i name="AGGAC">      0.00000000</i>
   <i type="int" name="NKREDX">     1</i>
   <i type="int" name="NKREDY">     1</i>
   <i type="int" name="NKREDZ">     1</i>
   <i type="logical" name="SHIFTRED"> F  </i>
   <i type="logical" name="ODDONLY"> F  </i>
   <i type="logical" name="EVENONLY"> F  </i>
   <i type="int" name="LMAXFOCK">     0</i>
   <i type="int" name="NMAXFOCKAE">     0</i>
   <i type="logical" name="LFOCKAEDFT"> F  </i>
   <i name="HFSCREEN">      0.00000000</i>
   <i name="HFSCREENC">      0.00000000</i>
   <i type="int" name="NBANDSGWLOW">     0</i>
  </separator>
  <separator name="vdW DFT" >
   <i type="logical" name="LUSE_VDW"> T  </i>
   <i name="Zab_VDW">     -0.84910000</i>
   <i name="PARAM1">      0.12340000</i>
   <i name="PARAM2">      1.00000000</i>
   <i name="PARAM3">      0.00000000</i>
  </separator>
  <separator name="model GW" >
   <i type="int" name="MODEL_GW">     0</i>
   <i name="MODEL_EPS0">     20.78602733</i>
   <i name="MODEL_ALPHA">      1.00000000</i>
  </separator>
  <separator name="linear response parameters" >
   <i type="logical" name="LEPSILON"> F  </i>
   <i type="logical" name="LRPA"> F  </i>
   <i type="logical" name="LNABLA"> F  </i>
   <i type="logical" name="LVEL"> F  </i>
   <i type="int" name="KINTER">     0</i>
   <i name="CSHIFT">      0.10000000</i>
   <i name="OMEGAMAX">     -1.00000000</i>
   <i name="DEG_THRESHOLD">      0.00200000</i>
   <i name="RTIME">     -0.10000000</i>
   <i name="WPLASMAI">      0.00000000</i>
   <v name="DFIELD">      0.00000000      0.00000000      0.00000000</v>
   <v name="WPLASMA">      0.00000000      0.00000000      0.00000000      0.00000000      0.00000000      0.00000000      0.00000000      0.00000000      0.00000000</v>
  </separator>
  <separator name="orbital magnetization" >
   <i type="logical" name="NUCIND"> F  </i>
   <v name="MAGPOS">      0.00000000      0.00000000      0.00000000</v>
   <i type="logical" name="LNICSALL"> T  </i>
   <i type="logical" name="ORBITALMAG"> F  </i>
   <i type="logical" name="LMAGBLOCH"> F  </i>
   <i type="logical" name="LCHIMAG"> F  </i>
   <i type="logical" name="LGAUGE"> T  </i>
   <i type="int" name="MAGATOM">     0</i>
   <v name="MAGDIPOL">      0.00000000      0.00000000      0.00000000</v>
   <v name="AVECCONST">      0.00000000      0.00000000      0.00000000</v>
  </separator>
  <separator name="response functions" >
   <i type="logical" name="LADDER"> F  </i>
   <i type="logical" name="LRPAFORCE"> F  </i>
   <i type="logical" name="LFXC"> F  </i>
   <i type="logical" name="LHARTREE"> T  </i>
   <i type="int" name="IBSE">     0</i>
   <v type="int" name="KPOINT">    -1     0     0     0</v>
   <i type="logical" name="LTCTE"> F  </i>
   <i type="logical" name="LTETE"> F  </i>
   <i type="logical" name="LTRIPLET"> F  </i>
   <i type="logical" name="LFXCEPS"> F  </i>
   <i type="logical" name="LFXHEG"> F  </i>
   <i type="int" name="NATURALO">     2</i>
   <i type="logical" name="L2ORDER"> F  </i>
   <i type="logical" name="LMP2LT"> F  </i>
   <i type="logical" name="LUSEW"> F  </i>
   <i name="ENCUTGW">     -2.00000000</i>
   <i name="ENCUTGWSOFT">     -2.00000000</i>
   <i name="ENCUTLF">     -1.00000000</i>
   <i type="int" name="LMAXMP2">    -1</i>
   <i name="SCISSOR">      0.00000000</i>
   <i type="int" name="NOMEGA">     0</i>
   <i type="int" name="NOMEGAR">     0</i>
   <i type="int" name="NBANDSGW">    -1</i>
   <i type="int" name="NBANDSO">    -1</i>
   <i type="int" name="NBANDSV">    -1</i>
   <i type="int" name="NELM">     1</i>
   <i type="int" name="NELMHF">     1</i>
   <i type="int" name="DIM">     3</i>
   <i type="int" name="ANTIRES">     0</i>
   <i name="OMEGAMAX">    -30.00000000</i>
   <i name="OMEGAMIN">    -30.00000000</i>
   <i name="OMEGATL">   -200.00000000</i>
   <i type="int" name="OMEGAGRID">   140</i>
   <i name="CSHIFT">     -0.10000000</i>
   <i type="logical" name="SELFENERGY"> F  </i>
   <i type="logical" name="LSPECTRAL"> F  </i>
   <i type="logical" name="LSPECTRALGW"> F  </i>
   <i type="logical" name="LSINGLES"> F  </i>
   <i type="logical" name="LFERMIGW"> F  </i>
   <i type="logical" name="ODDONLYGW"> F  </i>
   <i type="logical" name="EVENONLYGW"> F  </i>
   <i type="int" name="NKREDLFX">     1</i>
   <i type="int" name="NKREDLFY">     1</i>
   <i type="int" name="NKREDLFZ">     1</i>
   <i type="int" name="MAXMEM">  2800</i>
   <i type="int" name="TELESCOPE">     0</i>
   <i type="int" name="TAUPAR">     1</i>
   <i type="int" name="OMEGAPAR">    -1</i>
   <i name="LAMBDA">      1.00000000</i>
  </separator>
  <separator name="External order field" >
   <i name="OFIELD_KAPPA">      0.00000000</i>
   <v name="OFIELD_K">      0.00000000      0.00000000      0.00000000</v>
   <i name="OFIELD_Q6_NEAR">      0.00000000</i>
   <i name="OFIELD_Q6_FAR">      0.00000000</i>
   <i name="OFIELD_A">      0.00000000</i>
  </separator>
 </parameters>
 <atominfo>
  <atoms>       3 </atoms>
  <types>       2 </types>
  <array name="atoms" >
   <dimension dim="1">ion</dimension>
   <field type="string">element</field>
   <field type="int">atomtype</field>
   <set>
    <rc><c>Mo</c><c>   1</c></rc>
    <rc><c>S </c><c>   2</c></rc>
    <rc><c>S </c><c>   2</c></rc>
   </set>
  </array>
  <array name="atomtypes" >
   <dimension dim="1">type</dimension>
   <field type="int">atomspertype</field>
   <field type="string">element</field>
   <field>mass</field>
   <field>valence</field>
   <field type="string">pseudopotential</field>
   <set>
    <rc><c>   1</c><c>Mo</c><c>     95.94000000</c><c>      6.00000000</c><c>  PAW_PBE Mo 08Apr2002                  </c></rc>
    <rc><c>   2</c><c>S </c><c>     32.06600000</c><c>      6.00000000</c><c>  PAW_PBE S 06Sep2000                   </c></rc>
   </set>
  </array>
 </atominfo>
 <structure name="initialpos" >
  <crystal>
   <varray name="basis" >
    <v>       2.73211807      -1.57738910       0.00000000 </v>
    <v>       0.00000000       3.15477820       0.00000000 </v>
    <v>       0.00000000       0.00000000      12.05794237 </v>
   </varray>
   <i name="volume">    103.93013667 </i>
   <varray name="rec_basis" >
    <v>       0.36601639      -0.00000000       0.00000000 </v>
    <v>       0.18300820       0.31697949       0.00000000 </v>
    <v>       0.00000000       0.00000000       0.08293289 </v>
   </varray>
  </crystal>
  <varray name="positions" >
   <v>       0.33333333       0.66666667       0.25000000 </v>
   <v>       0.66666667       0.33333333       0.11965052 </v>
   <v>       0.66666667       0.33333333       0.38034948 </v>
  </varray>
 </structure>
 <calculation>
  <scstep>
   <time name="dav">   22.89   22.95</time>
   <time name="total">   23.28   23.35</time>
   <energy>
    <i name="alphaZ">     28.52810585 </i>
    <i name="ewald">    443.60801269 </i>
    <i name="hartreedc">  -1210.14377604 </i>
    <i name="XCdc">    -35.34212903 </i>
    <i name="pawpsdc">   1758.17570432 </i>
    <i name="pawaedc">  -1679.91492686 </i>
    <i name="eentropy">      0.00590958 </i>
    <i name="bandstr">    -95.93594786 </i>
    <i name="atom">    774.75650617 </i>
    <i name="e_fr_energy">    -16.26254117 </i>
    <i name="e_wo_entrp">    -16.26845075 </i>
    <i name="e_0_energy">    -16.26451103 </i>
   </energy>
  </scstep>
  <scstep>
   <time name="dav">   13.40   13.44</time>
   <time name="total">   13.40   13.44</time>
   <energy>
    <i name="e_fr_energy">    -16.27215522 </i>
    <i name="e_wo_entrp">    -16.27807609 </i>
    <i name="e_0_energy">    -16.27412884 </i>
   </energy>
  </scstep>
  <scstep>
   <time name="dav">   35.87   35.97</time>
   <time name="total">   35.88   35.97</time>
   <energy>
    <i name="alphaZ">     28.52810585 </i>
    <i name="ewald">    443.60801269 </i>
    <i name="hartreedc">  -1210.14377604 </i>
    <i name="XCdc">    -35.34212903 </i>
    <i name="pawpsdc">   1758.17570432 </i>
    <i name="pawaedc">  -1679.91492686 </i>
    <i name="eentropy">      0.00592086 </i>
    <i name="bandstr">    -95.94557478 </i>
    <i name="atom">    774.75650617 </i>
    <i name="e_fr_energy">    -16.27215682 </i>
    <i name="e_wo_entrp">    -16.27807768 </i>
    <i name="e_0_energy">    -16.27413044 </i>
   </energy>
  </scstep>
  <structure>
   <crystal>
    <varray name="basis" >
     <v>       2.73211807      -1.57738910       0.00000000 </v>
     <v>       0.00000000       3.15477820       0.00000000 </v>
     <v>       0.00000000       0.00000000      12.05794237 </v>
    </varray>
    <i name="volume">    103.93013667 </i>
    <varray name="rec_basis" >
     <v>       0.36601639      -0.00000000       0.00000000 </v>
     <v>       0.18300820       0.31697949       0.00000000 </v>
     <v>       0.00000000       0.00000000       0.08293289 </v>
    </varray>
   </crystal>
   <varray name="positions" >
    <v>       0.33333333       0.66666667       0.25000000 </v>
    <v>       0.66666667       0.33333333       0.11965052 </v>
    <v>       0.66666667       0.33333333       0.38034948 </v>
   </varray>
  </structure>
  <varray name="forces" >
   <v>       0.00000000      -0.00000000      -0.00000000 </v>
   <v>      -0.00000000       0.00000000      -0.17744441 </v>
   <v>       0.00000000      -0.00000000       0.17744441 </v>
  </varray>
  <varray name="stress" >
   <v>      -7.14225500       0.00000000       0.00000000 </v>
   <v>      -0.00000000      -7.14225500       0.00000000 </v>
   <v>       0.00000000       0.00000000       7.97030990 </v>
  </varray>
  <energy>
   <i name="e_fr_energy">    -16.27215682 </i>
   <i name="e_wo_entrp">    -16.27413044 </i>
   <i name="e_0_energy">      0.00592086 </i>
  </energy>
  <time name="totalsc">   74.08   75.60</time>
  <eigenvalues>
   <array>
    <dimension dim="1">band</dimension>
    <dimension dim="2">kpoint</dimension>
    <dimension dim="3">spin</dimension>
    <field>eigene</field>
    <field>occ</field>
    <set>
     <set comment="spin 1">
      <set comment="kpoint 1">
       <r>  -14.4400    1.0000 </r>
       <r>  -13.2368    1.0000 </r>
       <r>   -5.9647    1.0000 </r>
       <r>   -2.8798    1.0000 </r>
       <r>   -2.8795    1.0000 </r>
       <r>   -2.1781    1.0000 </r>
       <r>   -1.7375    1.0000 </r>
       <r>   -1.7371    1.0000 </r>
       <r>   -0.4647    1.0306 </r>
       <r>    2.5403   -0.0000 </r>
       <r>    2.5409   -0.0000 </r>
       <r>    2.7321   -0.0000 </r>
       <r>    2.7328   -0.0000 </r>
       <r>    4.0753   -0.0000 </r>
       <r>    5.6260    0.0000 </r>
       <r>    6.3016    0.0000 </r>
       <r>    8.2143    0.0000 </r>
       <r>    9.0301    0.0000 </r>
       <r>   10.9067    0.0000 </r>
       <r>   10.9082    0.0000 </r>
       <r>   12.0581    0.0000 </r>
       <r>   12.4737    0.0000 </r>
       <r>   12.9203    0.0000 </r>
       <r>   12.9216    0.0000 </r>
       <r>   14.8931    0.0000 </r>
       <r>   16.3443    0.0000 </r>
       <r>   16.4149    0.0000 </r>
       <r>   16.4154    0.0000 </r>
       <r>   16.5327    0.0000 </r>
       <r>   16.5330    0.0000 </r>
       <r>   18.7188    0.0000 </r>
       <r>   19.5109    0.0000 </r>
       <r>   21.0611    0.0000 </r>
       <r>   21.7874    0.0000 </r>
       <r>   22.5494    0.0000 </r>
       <r>   22.5503    0.0000 </r>
       <r>   23.9973    0.0000 </r>
       <r>   24.0296    0.0000 </r>
       <r>   24.0322    0.0000 </r>
       <r>   24.2814    0.0000 </r>
       <r>   24.2822    0.0000 </r>
       <r>   24.3876    0.0000 </r>
       <r>   24.8848    0.0000 </r>
       <r>   24.9072    0.0000 </r>
       <r>   24.9142    0.0000 </r>
       <r>   25.3395    0.0000 </r>
       <r>   25.3414    0.0000 </r>
       <r>   26.1021    0.0000 </r>
       <r>   26.4897    0.0000 </r>
       <r>   27.1300    0.0000 </r>
       <r>   27.3298    0.0000 </r>
       <r>   27.3331    0.0000 </r>
       <r>   27.9751    0.0000 </r>
       <r>   28.8562    0.0000 </r>
       <r>   28.8577    0.0000 </r>
       <r>   29.1539    0.0000 </r>
       <r>   29.1618    0.0000 </r>
       <r>   29.7280    0.0000 </r>
       <r>   29.9378    0.0000 </r>
       <r>   31.4152    0.0000 </r>
       <r>   31.4651    0.0000 </r>
       <r>   31.4677    0.0000 </r>
       <r>   31.8361    0.0000 </r>
       <r>   31.8364    0.0000 </r>
       <r>   33.0664    0.0000 </r>
       <r>   33.1010    0.0000 </r>
       <r>   34.3165    0.0000 </r>
       <r>   34.6215    0.0000 </r>
       <r>   34.6337    0.0000 </r>
       <r>   35.8788    0.0000 </r>
       <r>   35.8870    0.0000 </r>
       <r>   37.1290    0.0000 </r>
       <r>   38.3074    0.0000 </r>
       <r>   38.7075    0.0000 </r>
       <r>   38.7117    0.0000 </r>
       <r>   39.3387    0.0000 </r>
       <r>   39.3562    0.0000 </r>
       <r>   40.0401    0.0000 </r>
       <r>   40.2219    0.0000 </r>
       <r>   40.2242    0.0000 </r>
       <r>   40.5791    0.0000 </r>
       <r>   40.5792    0.0000 </r>
       <r>   41.2165    0.0000 </r>
       <r>   41.4369    0.0000 </r>
       <r>   42.1694    0.0000 </r>
       <r>   42.1701    0.0000 </r>
       <r>   42.8053    0.0000 </r>
       <r>   43.1869    0.0000 </r>
       <r>   43.3851    0.0000 </r>
       <r>   43.3959    0.0000 </r>
       <r>   44.4306    0.0000 </r>
       <r>   45.3467    0.0000 </r>
       <r>   45.3558    0.0000 </r>
       <r>   46.3790    0.0000 </r>
       <r>   46.3806    0.0000 </r>
       <r>   47.0554    0.0000 </r>
      </set>
      <set comment="kpoint 2">
       <r>  -14.4384    1.0000 </r>
       <r>  -13.2361    1.0000 </r>
       <r>   -5.9628    1.0000 </r>
       <r>   -2.8829    1.0000 </r>
       <r>   -2.8779    1.0000 </r>
       <r>   -2.1893    1.0000 </r>
       <r>   -1.7401    1.0000 </r>
       <r>   -1.7281    1.0000 </r>
       <r>   -0.4651    1.0307 </r>
       <r>    2.5379   -0.0000 </r>
       <r>    2.5433   -0.0000 </r>
       <r>    2.7275   -0.0000 </r>
       <r>    2.7306   -0.0000 </r>
       <r>    4.0782   -0.0000 </r>
       <r>    5.6280    0.0000 </r>
       <r>    6.3094    0.0000 </r>
       <r>    8.2167    0.0000 </r>
       <r>    9.0380    0.0000 </r>
       <r>   10.9026    0.0000 </r>
       <r>   10.9172    0.0000 </r>
       <r>   12.0585    0.0000 </r>
       <r>   12.4772    0.0000 </r>
       <r>   12.9071    0.0000 </r>
       <r>   12.9218    0.0000 </r>
       <r>   14.8916    0.0000 </r>
       <r>   16.3435    0.0000 </r>
       <r>   16.4183    0.0000 </r>
       <r>   16.4207    0.0000 </r>
       <r>   16.5264    0.0000 </r>
       <r>   16.5331    0.0000 </r>
       <r>   18.7257    0.0000 </r>
       <r>   19.5327    0.0000 </r>
       <r>   21.0633    0.0000 </r>
       <r>   21.7711    0.0000 </r>
       <r>   22.5506    0.0000 </r>
       <r>   22.5523    0.0000 </r>
       <r>   23.7350    0.0000 </r>
       <r>   23.9995    0.0000 </r>
       <r>   24.1515    0.0000 </r>
       <r>   24.2399    0.0000 </r>
       <r>   24.2584    0.0000 </r>
       <r>   24.3532    0.0000 </r>
       <r>   24.9488    0.0000 </r>
       <r>   24.9863    0.0000 </r>
       <r>   25.0140    0.0000 </r>
       <r>   25.2851    0.0000 </r>
       <r>   25.3660    0.0000 </r>
       <r>   26.1930    0.0000 </r>
       <r>   26.4950    0.0000 </r>
       <r>   27.0500    0.0000 </r>
       <r>   27.3008    0.0000 </r>
       <r>   27.3585    0.0000 </r>
       <r>   27.9785    0.0000 </r>
       <r>   28.8924    0.0000 </r>
       <r>   28.8986    0.0000 </r>
       <r>   29.0411    0.0000 </r>
       <r>   29.1510    0.0000 </r>
       <r>   29.8426    0.0000 </r>
       <r>   29.9529    0.0000 </r>
       <r>   31.4150    0.0000 </r>
       <r>   31.4385    0.0000 </r>
       <r>   31.4747    0.0000 </r>
       <r>   31.8191    0.0000 </r>
       <r>   31.8215    0.0000 </r>
       <r>   33.1036    0.0000 </r>
       <r>   33.1069    0.0000 </r>
       <r>   34.2553    0.0000 </r>
       <r>   34.6493    0.0000 </r>
       <r>   34.7128    0.0000 </r>
       <r>   35.8329    0.0000 </r>
       <r>   35.8790    0.0000 </r>
       <r>   37.1758    0.0000 </r>
       <r>   38.2712    0.0000 </r>
       <r>   38.6907    0.0000 </r>
       <r>   38.7303    0.0000 </r>
       <r>   39.3318    0.0000 </r>
       <r>   39.3471    0.0000 </r>
       <r>   40.0418    0.0000 </r>
       <r>   40.2152    0.0000 </r>
       <r>   40.2258    0.0000 </r>
       <r>   40.5867    0.0000 </r>
       <r>   40.5872    0.0000 </r>
       <r>   41.2273    0.0000 </r>
       <r>   41.4247    0.0000 </r>
       <r>   42.1430    0.0000 </r>
       <r>   42.1841    0.0000 </r>
       <r>   42.7995    0.0000 </r>
       <r>   43.1000    0.0000 </r>
       <r>   43.4237    0.0000 </r>
       <r>   43.4755    0.0000 </r>
       <r>   44.4306    0.0000 </r>
       <r>   45.3168    0.0000 </r>
       <r>   45.3317    0.0000 </r>
       <r>   46.3996    0.0000 </r>
       <r>   46.4027    0.0000 </r>
       <r>   47.0916    0.0000 </r>
      </set>
      <set comment="kpoint 3">
       <r>  -14.4338    1.0000 </r>
       <r>  -13.2339    1.0000 </r>
       <r>   -5.9573    1.0000 </r>
       <r>   -2.8939    1.0000 </r>
       <r>   -2.8728    1.0000 </r>
       <r>   -2.2205    1.0000 </r>
       <r>   -1.7481    1.0000 </r>
       <r>   -1.7037    1.0000 </r>
       <r>   -0.4664    1.0311 </r>
       <r>    2.5294   -0.0000 </r>
       <r>    2.5517   -0.0000 </r>
       <r>    2.7109   -0.0000 </r>
       <r>    2.7250   -0.0000 </r>
       <r>    4.0870   -0.0000 </r>
       <r>    5.6342    0.0000 </r>
       <r>    6.3323    0.0000 </r>
       <r>    8.2228    0.0000 </r>
       <r>    9.0616    0.0000 </r>
       <r>   10.8824    0.0000 </r>
       <r>   10.9327    0.0000 </r>
       <r>   12.0597    0.0000 </r>
       <r>   12.4849    0.0000 </r>
       <r>   12.8644    0.0000 </r>
       <r>   12.9245    0.0000 </r>
       <r>   14.8871    0.0000 </r>
       <r>   16.3103    0.0000 </r>
       <r>   16.4259    0.0000 </r>
       <r>   16.4621    0.0000 </r>
       <r>   16.5067    0.0000 </r>
       <r>   16.5334    0.0000 </r>
       <r>   18.7459    0.0000 </r>
       <r>   19.5959    0.0000 </r>
       <r>   21.0699    0.0000 </r>
       <r>   21.7238    0.0000 </r>
       <r>   22.5476    0.0000 </r>
       <r>   22.5589    0.0000 </r>
       <r>   23.4469    0.0000 </r>
       <r>   23.8887    0.0000 </r>
       <r>   23.9188    0.0000 </r>
       <r>   24.1786    0.0000 </r>
       <r>   24.1946    0.0000 </r>
       <r>   24.5194    0.0000 </r>
       <r>   25.0124    0.0000 </r>
       <r>   25.0540    0.0000 </r>
       <r>   25.2429    0.0000 </r>
       <r>   25.3271    0.0000 </r>
       <r>   25.4378    0.0000 </r>
       <r>   26.4050    0.0000 </r>
       <r>   26.5071    0.0000 </r>
       <r>   26.8734    0.0000 </r>
       <r>   27.2133    0.0000 </r>
       <r>   27.3995    0.0000 </r>
       <r>   27.9848    0.0000 </r>
       <r>   28.8063    0.0000 </r>
       <r>   28.9872    0.0000 </r>
       <r>   29.0071    0.0000 </r>
       <r>   29.1359    0.0000 </r>
       <r>   29.9984    0.0000 </r>
       <r>   30.0620    0.0000 </r>
       <r>   31.3565    0.0000 </r>
       <r>   31.4223    0.0000 </r>
       <r>   31.5011    0.0000 </r>
       <r>   31.7678    0.0000 </r>
       <r>   31.7785    0.0000 </r>
       <r>   33.1092    0.0000 </r>
       <r>   33.2187    0.0000 </r>
       <r>   34.1554    0.0000 </r>
       <r>   34.7024    0.0000 </r>
       <r>   34.8887    0.0000 </r>
       <r>   35.6962    0.0000 </r>
       <r>   35.8709    0.0000 </r>
       <r>   37.2950    0.0000 </r>
       <r>   38.1777    0.0000 </r>
       <r>   38.6379    0.0000 </r>
       <r>   38.7718    0.0000 </r>
       <r>   39.2959    0.0000 </r>
       <r>   39.3354    0.0000 </r>
       <r>   40.0451    0.0000 </r>
       <r>   40.1593    0.0000 </r>
       <r>   40.2207    0.0000 </r>
       <r>   40.6029    0.0000 </r>
       <r>   40.6071    0.0000 </r>
       <r>   41.2496    0.0000 </r>
       <r>   41.3897    0.0000 </r>
       <r>   42.0642    0.0000 </r>
       <r>   42.2266    0.0000 </r>
       <r>   42.7813    0.0000 </r>
       <r>   42.9530    0.0000 </r>
       <r>   43.4851    0.0000 </r>
       <r>   43.6168    0.0000 </r>
       <r>   44.4297    0.0000 </r>
       <r>   45.2196    0.0000 </r>
       <r>   45.2823    0.0000 </r>
       <r>   46.4488    0.0000 </r>
       <r>   46.4667    0.0000 </r>
       <r>   47.1406    0.0000 </r>
      </set>
      <set comment="kpoint 4">
       <r>  -14.4262    1.0000 </r>
       <r>  -13.2301    1.0000 </r>
       <r>   -5.9481    1.0000 </r>
       <r>   -2.9124    1.0000 </r>
       <r>   -2.8643    1.0000 </r>
       <r>   -2.2665    1.0000 </r>
       <r>   -1.7614    1.0000 </r>
       <r>   -1.6691    1.0000 </r>
       <r>   -0.4688    1.0318 </r>
       <r>    2.5158   -0.0000 </r>
       <r>    2.5656   -0.0000 </r>
       <r>    2.6834   -0.0000 </r>
       <r>    2.7157   -0.0000 </r>
       <r>    4.1013   -0.0000 </r>
       <r>    5.6445    0.0000 </r>
       <r>    6.3700    0.0000 </r>
       <r>    8.2329    0.0000 </r>
       <r>    9.1004    0.0000 </r>
       <r>   10.8467    0.0000 </r>
       <r>   10.9579    0.0000 </r>
       <r>   12.0609    0.0000 </r>
       <r>   12.4957    0.0000 </r>
       <r>   12.7974    0.0000 </r>
       <r>   12.9292    0.0000 </r>
       <r>   14.8796    0.0000 </r>
       <r>   16.2375    0.0000 </r>
       <r>   16.4385    0.0000 </r>
       <r>   16.4742    0.0000 </r>
       <r>   16.5340    0.0000 </r>
       <r>   16.5499    0.0000 </r>
       <r>   18.7794    0.0000 </r>
       <r>   19.6965    0.0000 </r>
       <r>   21.0809    0.0000 </r>
       <r>   21.6490    0.0000 </r>
       <r>   22.5226    0.0000 </r>
       <r>   22.5668    0.0000 </r>
       <r>   23.1755    0.0000 </r>
       <r>   23.5885    0.0000 </r>
       <r>   23.8170    0.0000 </r>
       <r>   24.0526    0.0000 </r>
       <r>   24.1027    0.0000 </r>
       <r>   24.7254    0.0000 </r>
       <r>   24.8407    0.0000 </r>
       <r>   25.1985    0.0000 </r>
       <r>   25.5224    0.0000 </r>
       <r>   25.5429    0.0000 </r>
       <r>   25.5608    0.0000 </r>
       <r>   26.4939    0.0000 </r>
       <r>   26.6704    0.0000 </r>
       <r>   26.6825    0.0000 </r>
       <r>   27.0868    0.0000 </r>
       <r>   27.4381    0.0000 </r>
       <r>   27.9919    0.0000 </r>
       <r>   28.5449    0.0000 </r>
       <r>   29.1119    0.0000 </r>
       <r>   29.1263    0.0000 </r>
       <r>   29.1475    0.0000 </r>
       <r>   30.0772    0.0000 </r>
       <r>   30.2849    0.0000 </r>
       <r>   31.2627    0.0000 </r>
       <r>   31.4282    0.0000 </r>
       <r>   31.5443    0.0000 </r>
       <r>   31.6871    0.0000 </r>
       <r>   31.7117    0.0000 </r>
       <r>   33.1194    0.0000 </r>
       <r>   33.3816    0.0000 </r>
       <r>   34.0716    0.0000 </r>
       <r>   34.7852    0.0000 </r>
       <r>   35.0933    0.0000 </r>
       <r>   35.5112    0.0000 </r>
       <r>   35.8577    0.0000 </r>
       <r>   37.4487    0.0000 </r>
       <r>   38.0531    0.0000 </r>
       <r>   38.5524    0.0000 </r>
       <r>   38.8102    0.0000 </r>
       <r>   39.2352    0.0000 </r>
       <r>   39.3208    0.0000 </r>
       <r>   40.0471    0.0000 </r>
       <r>   40.0728    0.0000 </r>
       <r>   40.2112    0.0000 </r>
       <r>   40.6192    0.0000 </r>
       <r>   40.6304    0.0000 </r>
       <r>   41.2827    0.0000 </r>
       <r>   41.3365    0.0000 </r>
       <r>   41.9405    0.0000 </r>
       <r>   42.2953    0.0000 </r>
       <r>   42.7614    0.0000 </r>
       <r>   42.7955    0.0000 </r>
       <r>   43.5781    0.0000 </r>
       <r>   43.7669    0.0000 </r>
       <r>   44.4267    0.0000 </r>
       <r>   45.0800    0.0000 </r>
       <r>   45.2192    0.0000 </r>
       <r>   46.5250    0.0000 </r>
       <r>   46.5679    0.0000 </r>
       <r>   47.0217    0.0000 </r>
      </set>
      <set comment="kpoint 5">
       <r>  -14.4155    1.0000 </r>
       <r>  -13.2249    1.0000 </r>
       <r>   -5.9352    1.0000 </r>
       <r>   -2.9379    1.0000 </r>
       <r>   -2.8526    1.0000 </r>
       <r>   -2.3223    1.0000 </r>
       <r>   -1.7797    1.0000 </r>
       <r>   -1.6299    1.0000 </r>
       <r>   -0.4723    1.0327 </r>
       <r>    2.4972   -0.0000 </r>
       <r>    2.5848   -0.0000 </r>
       <r>    2.6464   -0.0000 </r>
       <r>    2.7026   -0.0000 </r>
       <r>    4.1208   -0.0000 </r>
       <r>    5.6589    0.0000 </r>
       <r>    6.4218    0.0000 </r>
       <r>    8.2468    0.0000 </r>
       <r>    9.1538    0.0000 </r>
       <r>   10.8001    0.0000 </r>
       <r>   10.9893    0.0000 </r>
       <r>   12.0606    0.0000 </r>
       <r>   12.5083    0.0000 </r>
       <r>   12.7091    0.0000 </r>
       <r>   12.9352    0.0000 </r>
       <r>   14.8692    0.0000 </r>
       <r>   16.1385    0.0000 </r>
       <r>   16.4293    0.0000 </r>
       <r>   16.4557    0.0000 </r>
       <r>   16.5401    0.0000 </r>
       <r>   16.6718    0.0000 </r>
       <r>   18.8261    0.0000 </r>
       <r>   19.8290    0.0000 </r>
       <r>   21.0964    0.0000 </r>
       <r>   21.5495    0.0000 </r>
       <r>   22.4378    0.0000 </r>
       <r>   22.5705    0.0000 </r>
       <r>   22.9645    0.0000 </r>
       <r>   23.2744    0.0000 </r>
       <r>   23.7161    0.0000 </r>
       <r>   23.9321    0.0000 </r>
       <r>   23.9939    0.0000 </r>
       <r>   24.6411    0.0000 </r>
       <r>   24.9240    0.0000 </r>
       <r>   25.3637    0.0000 </r>
       <r>   25.6697    0.0000 </r>
       <r>   25.8103    0.0000 </r>
       <r>   25.8186    0.0000 </r>
       <r>   26.3216    0.0000 </r>
       <r>   26.6407    0.0000 </r>
       <r>   26.9372    0.0000 </r>
       <r>   26.9592    0.0000 </r>
       <r>   27.4771    0.0000 </r>
       <r>   28.0060    0.0000 </r>
       <r>   28.2824    0.0000 </r>
       <r>   29.0808    0.0000 </r>
       <r>   29.2853    0.0000 </r>
       <r>   29.2953    0.0000 </r>
       <r>   30.1909    0.0000 </r>
       <r>   30.4511    0.0000 </r>
       <r>   31.2083    0.0000 </r>
       <r>   31.4374    0.0000 </r>
       <r>   31.5823    0.0000 </r>
       <r>   31.6026    0.0000 </r>
       <r>   31.6312    0.0000 </r>
       <r>   33.1364    0.0000 </r>
       <r>   33.5758    0.0000 </r>
       <r>   34.0140    0.0000 </r>
       <r>   34.8914    0.0000 </r>
       <r>   35.3058    0.0000 </r>
       <r>   35.3095    0.0000 </r>
       <r>   35.8387    0.0000 </r>
       <r>   37.6063    0.0000 </r>
       <r>   37.9138    0.0000 </r>
       <r>   38.4366    0.0000 </r>
       <r>   38.8361    0.0000 </r>
       <r>   39.1574    0.0000 </r>
       <r>   39.2951    0.0000 </r>
       <r>   39.9506    0.0000 </r>
       <r>   40.0423    0.0000 </r>
       <r>   40.2085    0.0000 </r>
       <r>   40.6295    0.0000 </r>
       <r>   40.6505    0.0000 </r>
       <r>   41.2678    0.0000 </r>
       <r>   41.3261    0.0000 </r>
       <r>   41.7794    0.0000 </r>
       <r>   42.3873    0.0000 </r>
       <r>   42.6414    0.0000 </r>
       <r>   42.7490    0.0000 </r>
       <r>   43.6959    0.0000 </r>
       <r>   43.9254    0.0000 </r>
       <r>   44.4173    0.0000 </r>
       <r>   44.9173    0.0000 </r>
       <r>   45.1545    0.0000 </r>
       <r>   46.6216    0.0000 </r>
       <r>   46.6980    0.0000 </r>
       <r>   46.8661    0.0000 </r>
      </set>
      <set comment="kpoint 6">
       <r>  -14.4018    1.0000 </r>
       <r>  -13.2182    1.0000 </r>
       <r>   -5.9189    1.0000 </r>
       <r>   -2.9699    1.0000 </r>
       <r>   -2.8376    1.0000 </r>
       <r>   -2.3847    1.0000 </r>
       <r>   -1.8032    1.0000 </r>
       <r>   -1.5888    1.0000 </r>
       <r>   -0.4771    1.0337 </r>
       <r>    2.4751   -0.0000 </r>
       <r>    2.6016   -0.0000 </r>
       <r>    2.6086   -0.0000 </r>
       <r>    2.6861   -0.0000 </r>
       <r>    4.1450   -0.0000 </r>
       <r>    5.6772    0.0000 </r>
       <r>    6.4870    0.0000 </r>
       <r>    8.2649    0.0000 </r>
       <r>    9.2202    0.0000 </r>
       <r>   10.7472    0.0000 </r>
       <r>   11.0315    0.0000 </r>
       <r>   12.0555    0.0000 </r>
       <r>   12.5216    0.0000 </r>
       <r>   12.6123    0.0000 </r>
       <r>   12.9404    0.0000 </r>
       <r>   14.8554    0.0000 </r>
       <r>   16.0205    0.0000 </r>
       <r>   16.3727    0.0000 </r>
       <r>   16.4769    0.0000 </r>
       <r>   16.5420    0.0000 </r>
       <r>   16.8211    0.0000 </r>
       <r>   18.8860    0.0000 </r>
       <r>   19.9874    0.0000 </r>
       <r>   21.1149    0.0000 </r>
       <r>   21.4239    0.0000 </r>
       <r>   22.2638    0.0000 </r>
       <r>   22.5621    0.0000 </r>
       <r>   22.8486    0.0000 </r>
       <r>   22.9546    0.0000 </r>
       <r>   23.6323    0.0000 </r>
       <r>   23.8227    0.0000 </r>
       <r>   23.8757    0.0000 </r>
       <r>   24.4394    0.0000 </r>
       <r>   25.1183    0.0000 </r>
       <r>   25.5371    0.0000 </r>
       <r>   25.8100    0.0000 </r>
       <r>   25.9603    0.0000 </r>
       <r>   26.0760    0.0000 </r>
       <r>   26.1851    0.0000 </r>
       <r>   26.6896    0.0000 </r>
       <r>   26.7788    0.0000 </r>
       <r>   27.2440    0.0000 </r>
       <r>   27.5181    0.0000 </r>
       <r>   28.0399    0.0000 </r>
       <r>   28.0421    0.0000 </r>
       <r>   29.0444    0.0000 </r>
       <r>   29.4015    0.0000 </r>
       <r>   29.4821    0.0000 </r>
       <r>   30.3334    0.0000 </r>
       <r>   30.4896    0.0000 </r>
       <r>   31.2664    0.0000 </r>
       <r>   31.4517    0.0000 </r>
       <r>   31.4596    0.0000 </r>
       <r>   31.5484    0.0000 </r>
       <r>   31.6739    0.0000 </r>
       <r>   33.1625    0.0000 </r>
       <r>   33.7816    0.0000 </r>
       <r>   33.9823    0.0000 </r>
       <r>   35.0150    0.0000 </r>
       <r>   35.1005    0.0000 </r>
       <r>   35.5258    0.0000 </r>
       <r>   35.8126    0.0000 </r>
       <r>   37.7486    0.0000 </r>
       <r>   37.7660    0.0000 </r>
       <r>   38.2955    0.0000 </r>
       <r>   38.8530    0.0000 </r>
       <r>   39.0722    0.0000 </r>
       <r>   39.2496    0.0000 </r>
       <r>   39.8107    0.0000 </r>
       <r>   40.0345    0.0000 </r>
       <r>   40.2171    0.0000 </r>
       <r>   40.6342    0.0000 </r>
       <r>   40.6655    0.0000 </r>
       <r>   41.2007    0.0000 </r>
       <r>   41.3809    0.0000 </r>
       <r>   41.5910    0.0000 </r>
       <r>   42.4988    0.0000 </r>
       <r>   42.5053    0.0000 </r>
       <r>   42.7510    0.0000 </r>
       <r>   43.8396    0.0000 </r>
       <r>   44.0919    0.0000 </r>
       <r>   44.3897    0.0000 </r>
       <r>   44.7573    0.0000 </r>
       <r>   45.0958    0.0000 </r>
       <r>   46.7250    0.0000 </r>
       <r>   46.7298    0.0000 </r>
       <r>   46.8488    0.0000 </r>
      </set>
      <set comment="kpoint 7">
       <r>  -14.3851    1.0000 </r>
       <r>  -13.2101    1.0000 </r>
       <r>   -5.8991    1.0000 </r>
       <r>   -3.0083    1.0000 </r>
       <r>   -2.8192    1.0000 </r>
       <r>   -2.4520    1.0000 </r>
       <r>   -1.8311    1.0000 </r>
       <r>   -1.5494    1.0000 </r>
       <r>   -0.4833    1.0347 </r>
       <r>    2.4494   -0.0000 </r>
       <r>    2.5502   -0.0000 </r>
       <r>    2.6374   -0.0000 </r>
       <r>    2.6666   -0.0000 </r>
       <r>    4.1735   -0.0000 </r>
       <r>    5.6995    0.0000 </r>
       <r>    6.5646    0.0000 </r>
       <r>    8.2871    0.0000 </r>
       <r>    9.2988    0.0000 </r>
       <r>   10.6860    0.0000 </r>
       <r>   11.0874    0.0000 </r>
       <r>   12.0391    0.0000 </r>
       <r>   12.5080    0.0000 </r>
       <r>   12.5335    0.0000 </r>
       <r>   12.9501    0.0000 </r>
       <r>   14.8375    0.0000 </r>
       <r>   15.8876    0.0000 </r>
       <r>   16.3055    0.0000 </r>
       <r>   16.5030    0.0000 </r>
       <r>   16.5413    0.0000 </r>
       <r>   16.9927    0.0000 </r>
       <r>   18.9588    0.0000 </r>
       <r>   20.1658    0.0000 </r>
       <r>   21.1364    0.0000 </r>
       <r>   21.2667    0.0000 </r>
       <r>   22.0445    0.0000 </r>
       <r>   22.5328    0.0000 </r>
       <r>   22.6326    0.0000 </r>
       <r>   22.7928    0.0000 </r>
       <r>   23.5784    0.0000 </r>
       <r>   23.7267    0.0000 </r>
       <r>   23.7531    0.0000 </r>
       <r>   24.2413    0.0000 </r>
       <r>   25.3048    0.0000 </r>
       <r>   25.7048    0.0000 </r>
       <r>   25.7267    0.0000 </r>
       <r>   25.9587    0.0000 </r>
       <r>   26.3274    0.0000 </r>
       <r>   26.3726    0.0000 </r>
       <r>   26.6275    0.0000 </r>
       <r>   26.7787    0.0000 </r>
       <r>   27.4250    0.0000 </r>
       <r>   27.5647    0.0000 </r>
       <r>   27.9204    0.0000 </r>
       <r>   28.1087    0.0000 </r>
       <r>   29.0049    0.0000 </r>
       <r>   29.4838    0.0000 </r>
       <r>   29.6822    0.0000 </r>
       <r>   30.4045    0.0000 </r>
       <r>   30.4837    0.0000 </r>
       <r>   31.3248    0.0000 </r>
       <r>   31.3985    0.0000 </r>
       <r>   31.4863    0.0000 </r>
       <r>   31.5088    0.0000 </r>
       <r>   31.7572    0.0000 </r>
       <r>   33.1979    0.0000 </r>
       <r>   33.9709    0.0000 </r>
       <r>   33.9736    0.0000 </r>
       <r>   34.9214    0.0000 </r>
       <r>   35.1495    0.0000 </r>
       <r>   35.7330    0.0000 </r>
       <r>   35.7808    0.0000 </r>
       <r>   37.6155    0.0000 </r>
       <r>   37.8529    0.0000 </r>
       <r>   38.1359    0.0000 </r>
       <r>   38.8649    0.0000 </r>
       <r>   38.9791    0.0000 </r>
       <r>   39.1856    0.0000 </r>
       <r>   39.6663    0.0000 </r>
       <r>   40.0178    0.0000 </r>
       <r>   40.2242    0.0000 </r>
       <r>   40.6355    0.0000 </r>
       <r>   40.6732    0.0000 </r>
       <r>   41.1306    0.0000 </r>
       <r>   41.4023    0.0000 </r>
       <r>   41.4367    0.0000 </r>
       <r>   42.3983    0.0000 </r>
       <r>   42.6211    0.0000 </r>
       <r>   42.7702    0.0000 </r>
       <r>   44.0084    0.0000 </r>
       <r>   44.2647    0.0000 </r>
       <r>   44.3083    0.0000 </r>
       <r>   44.6351    0.0000 </r>
       <r>   45.0492    0.0000 </r>
       <r>   46.6064    0.0000 </r>
       <r>   46.8408    0.0000 </r>
       <r>   47.0122    0.0000 </r>
      </set>
      <set comment="kpoint 8">
       <r>  -14.3654    1.0000 </r>
       <r>  -13.2005    1.0000 </r>
       <r>   -5.8760    1.0000 </r>
       <r>   -3.0521    1.0000 </r>
       <r>   -2.7975    1.0000 </r>
       <r>   -2.5221    1.0000 </r>
       <r>   -1.8630    1.0000 </r>
       <r>   -1.5113    1.0000 </r>
       <r>   -0.4911    1.0353 </r>
       <r>    2.4236   -0.0000 </r>
       <r>    2.4938   -0.0000 </r>
       <r>    2.6443   -0.0000 </r>
       <r>    2.6710   -0.0000 </r>
       <r>    4.2059   -0.0000 </r>
       <r>    5.7258    0.0000 </r>
       <r>    6.6536    0.0000 </r>
       <r>    8.3135    0.0000 </r>
       <r>    9.3897    0.0000 </r>
       <r>   10.6207    0.0000 </r>
       <r>   11.1560    0.0000 </r>
       <r>   12.0025    0.0000 </r>
       <r>   12.4256    0.0000 </r>
       <r>   12.5431    0.0000 </r>
       <r>   12.9659    0.0000 </r>
       <r>   14.8167    0.0000 </r>
       <r>   15.7494    0.0000 </r>
       <r>   16.2286    0.0000 </r>
       <r>   16.5343    0.0000 </r>
       <r>   16.5479    0.0000 </r>
       <r>   17.1830    0.0000 </r>
       <r>   19.0436    0.0000 </r>
       <r>   20.3600    0.0000 </r>
       <r>   21.0700    0.0000 </r>
       <r>   21.1630    0.0000 </r>
       <r>   21.8348    0.0000 </r>
       <r>   22.3131    0.0000 </r>
       <r>   22.4764    0.0000 </r>
       <r>   22.7527    0.0000 </r>
       <r>   23.5624    0.0000 </r>
       <r>   23.6295    0.0000 </r>
       <r>   23.6452    0.0000 </r>
       <r>   24.0501    0.0000 </r>
       <r>   25.3568    0.0000 </r>
       <r>   25.5803    0.0000 </r>
       <r>   25.8381    0.0000 </r>
       <r>   26.1125    0.0000 </r>
       <r>   26.5137    0.0000 </r>
       <r>   26.5193    0.0000 </r>
       <r>   26.5662    0.0000 </r>
       <r>   26.9050    0.0000 </r>
       <r>   27.3269    0.0000 </r>
       <r>   27.6325    0.0000 </r>
       <r>   28.0967    0.0000 </r>
       <r>   28.2248    0.0000 </r>
       <r>   28.9652    0.0000 </r>
       <r>   29.5300    0.0000 </r>
       <r>   29.8898    0.0000 </r>
       <r>   30.2673    0.0000 </r>
       <r>   30.6107    0.0000 </r>
       <r>   31.1838    0.0000 </r>
       <r>   31.4439    0.0000 </r>
       <r>   31.4821    0.0000 </r>
       <r>   31.7113    0.0000 </r>
       <r>   31.8509    0.0000 </r>
       <r>   33.2432    0.0000 </r>
       <r>   33.9849    0.0000 </r>
       <r>   34.0872    0.0000 </r>
       <r>   34.8316    0.0000 </r>
       <r>   35.2872    0.0000 </r>
       <r>   35.7434    0.0000 </r>
       <r>   35.9210    0.0000 </r>
       <r>   37.4734    0.0000 </r>
       <r>   37.9196    0.0000 </r>
       <r>   37.9627    0.0000 </r>
       <r>   38.8789    0.0000 </r>
       <r>   38.8825    0.0000 </r>
       <r>   39.1036    0.0000 </r>
       <r>   39.5113    0.0000 </r>
       <r>   40.0182    0.0000 </r>
       <r>   40.2282    0.0000 </r>
       <r>   40.6340    0.0000 </r>
       <r>   40.6771    0.0000 </r>
       <r>   41.0903    0.0000 </r>
       <r>   41.2296    0.0000 </r>
       <r>   41.4820    0.0000 </r>
       <r>   42.3390    0.0000 </r>
       <r>   42.7599    0.0000 </r>
       <r>   42.8050    0.0000 </r>
       <r>   44.1565    0.0000 </r>
       <r>   44.2011    0.0000 </r>
       <r>   44.4437    0.0000 </r>
       <r>   44.5858    0.0000 </r>
       <r>   45.0161    0.0000 </r>
       <r>   46.5128    0.0000 </r>
       <r>   46.9456    0.0000 </r>
       <r>   47.1817    0.0000 </r>
      </set>
      <set comment="kpoint 9">
       <r>  -14.3428    1.0000 </r>
       <r>  -13.1896    1.0000 </r>
       <r>   -5.8503    1.0000 </r>
       <r>   -3.1018    1.0000 </r>
       <r>   -2.7726    1.0000 </r>
       <r>   -2.5953    1.0000 </r>
       <r>   -1.8999    1.0000 </r>
       <r>   -1.4775    1.0000 </r>
       <r>   -0.5008    1.0354 </r>
       <r>    2.3967   -0.0000 </r>
       <r>    2.4320   -0.0000 </r>
       <r>    2.6189   -0.0000 </r>
       <r>    2.7076   -0.0000 </r>
       <r>    4.2421   -0.0000 </r>
       <r>    5.7558    0.0000 </r>
       <r>    6.7517    0.0000 </r>
       <r>    8.3433    0.0000 </r>
       <r>    9.4864    0.0000 </r>
       <r>   10.5484    0.0000 </r>
       <r>   11.2284    0.0000 </r>
       <r>   11.9332    0.0000 </r>
       <r>   12.3686    0.0000 </r>
       <r>   12.5469    0.0000 </r>
       <r>   12.9729    0.0000 </r>
       <r>   14.7898    0.0000 </r>
       <r>   15.5959    0.0000 </r>
       <r>   16.1456    0.0000 </r>
       <r>   16.5520    0.0000 </r>
       <r>   16.5659    0.0000 </r>
       <r>   17.3869    0.0000 </r>
       <r>   19.1382    0.0000 </r>
       <r>   20.5626    0.0000 </r>
       <r>   20.8319    0.0000 </r>
       <r>   21.1864    0.0000 </r>
       <r>   21.6580    0.0000 </r>
       <r>   21.9986    0.0000 </r>
       <r>   22.3934    0.0000 </r>
       <r>   22.7090    0.0000 </r>
       <r>   23.5050    0.0000 </r>
       <r>   23.5766    0.0000 </r>
       <r>   23.5852    0.0000 </r>
       <r>   23.8660    0.0000 </r>
       <r>   25.0947    0.0000 </r>
       <r>   25.7435    0.0000 </r>
       <r>   25.8753    0.0000 </r>
       <r>   26.2673    0.0000 </r>
       <r>   26.4994    0.0000 </r>
       <r>   26.6011    0.0000 </r>
       <r>   26.7540    0.0000 </r>
       <r>   27.0167    0.0000 </r>
       <r>   27.1517    0.0000 </r>
       <r>   27.7451    0.0000 </r>
       <r>   28.3964    0.0000 </r>
       <r>   28.3968    0.0000 </r>
       <r>   28.9263    0.0000 </r>
       <r>   29.5352    0.0000 </r>
       <r>   30.0974    0.0000 </r>
       <r>   30.1180    0.0000 </r>
       <r>   30.6888    0.0000 </r>
       <r>   31.0427    0.0000 </r>
       <r>   31.4543    0.0000 </r>
       <r>   31.5584    0.0000 </r>
       <r>   31.9510    0.0000 </r>
       <r>   31.9565    0.0000 </r>
       <r>   33.2899    0.0000 </r>
       <r>   34.0136    0.0000 </r>
       <r>   34.0520    0.0000 </r>
       <r>   34.9022    0.0000 </r>
       <r>   35.4214    0.0000 </r>
       <r>   35.6887    0.0000 </r>
       <r>   36.0724    0.0000 </r>
       <r>   37.3423    0.0000 </r>
       <r>   37.7765    0.0000 </r>
       <r>   37.9334    0.0000 </r>
       <r>   38.7660    0.0000 </r>
       <r>   38.8970    0.0000 </r>
       <r>   38.9569    0.0000 </r>
       <r>   39.3362    0.0000 </r>
       <r>   40.0325    0.0000 </r>
       <r>   40.2179    0.0000 </r>
       <r>   40.6303    0.0000 </r>
       <r>   40.6799    0.0000 </r>
       <r>   41.0653    0.0000 </r>
       <r>   41.0707    0.0000 </r>
       <r>   41.4945    0.0000 </r>
       <r>   42.3373    0.0000 </r>
       <r>   42.8532    0.0000 </r>
       <r>   42.9015    0.0000 </r>
       <r>   43.9568    0.0000 </r>
       <r>   44.4075    0.0000 </r>
       <r>   44.5757    0.0000 </r>
       <r>   44.6248    0.0000 </r>
       <r>   44.9890    0.0000 </r>
       <r>   46.4259    0.0000 </r>
       <r>   47.0270    0.0000 </r>
       <r>   47.2584    0.0000 </r>
      </set>
      <set comment="kpoint 10">
       <r>  -14.3174    1.0000 </r>
       <r>  -13.1772    1.0000 </r>
       <r>   -5.8210    1.0000 </r>
       <r>   -3.1560    1.0000 </r>
       <r>   -2.7450    1.0000 </r>
       <r>   -2.6698    1.0000 </r>
       <r>   -1.9395    1.0000 </r>
       <r>   -1.4480    1.0000 </r>
       <r>   -0.5132    1.0345 </r>
       <r>    2.3681   -0.0000 </r>
       <r>    2.3714   -0.0000 </r>
       <r>    2.5907   -0.0000 </r>
       <r>    2.7482   -0.0000 </r>
       <r>    4.2816   -0.0000 </r>
       <r>    5.7896    0.0000 </r>
       <r>    6.8584    0.0000 </r>
       <r>    8.3773    0.0000 </r>
       <r>    9.5918    0.0000 </r>
       <r>   10.4710    0.0000 </r>
       <r>   11.3100    0.0000 </r>
       <r>   11.8349    0.0000 </r>
       <r>   12.3420    0.0000 </r>
       <r>   12.5425    0.0000 </r>
       <r>   12.9915    0.0000 </r>
       <r>   14.7605    0.0000 </r>
       <r>   15.4526    0.0000 </r>
       <r>   16.0509    0.0000 </r>
       <r>   16.5646    0.0000 </r>
       <r>   16.6038    0.0000 </r>
       <r>   17.6045    0.0000 </r>
       <r>   19.2410    0.0000 </r>
       <r>   20.5638    0.0000 </r>
       <r>   20.7725    0.0000 </r>
       <r>   21.2031    0.0000 </r>
       <r>   21.5151    0.0000 </r>
       <r>   21.7022    0.0000 </r>
       <r>   22.2872    0.0000 </r>
       <r>   22.6566    0.0000 </r>
       <r>   23.3827    0.0000 </r>
       <r>   23.5179    0.0000 </r>
       <r>   23.6404    0.0000 </r>
       <r>   23.6932    0.0000 </r>
       <r>   24.8079    0.0000 </r>
       <r>   25.7916    0.0000 </r>
       <r>   25.9374    0.0000 </r>
       <r>   26.4215    0.0000 </r>
       <r>   26.6104    0.0000 </r>
       <r>   26.6520    0.0000 </r>
       <r>   26.7094    0.0000 </r>
       <r>   27.0697    0.0000 </r>
       <r>   27.1853    0.0000 </r>
       <r>   27.9083    0.0000 </r>
       <r>   28.6274    0.0000 </r>
       <r>   28.7054    0.0000 </r>
       <r>   28.8925    0.0000 </r>
       <r>   29.4996    0.0000 </r>
       <r>   29.9856    0.0000 </r>
       <r>   30.2953    0.0000 </r>
       <r>   30.7267    0.0000 </r>
       <r>   30.9130    0.0000 </r>
       <r>   31.4669    0.0000 </r>
       <r>   31.7064    0.0000 </r>
       <r>   32.0588    0.0000 </r>
       <r>   32.2043    0.0000 </r>
       <r>   33.3411    0.0000 </r>
       <r>   33.9147    0.0000 </r>
       <r>   34.0612    0.0000 </r>
       <r>   35.0967    0.0000 </r>
       <r>   35.5380    0.0000 </r>
       <r>   35.6308    0.0000 </r>
       <r>   36.1782    0.0000 </r>
       <r>   37.2350    0.0000 </r>
       <r>   37.5893    0.0000 </r>
       <r>   37.9044    0.0000 </r>
       <r>   38.6387    0.0000 </r>
       <r>   38.8029    0.0000 </r>
       <r>   38.9247    0.0000 </r>
       <r>   39.1615    0.0000 </r>
       <r>   40.0668    0.0000 </r>
       <r>   40.1875    0.0000 </r>
       <r>   40.6267    0.0000 </r>
       <r>   40.6870    0.0000 </r>
       <r>   40.9502    0.0000 </r>
       <r>   41.0731    0.0000 </r>
       <r>   41.4833    0.0000 </r>
       <r>   42.3981    0.0000 </r>
       <r>   42.9121    0.0000 </r>
       <r>   43.0430    0.0000 </r>
       <r>   43.7490    0.0000 </r>
       <r>   44.5882    0.0000 </r>
       <r>   44.6268    0.0000 </r>
       <r>   44.8064    0.0000 </r>
       <r>   44.9740    0.0000 </r>
       <r>   46.3766    0.0000 </r>
       <r>   47.0823    0.0000 </r>
       <r>   47.2405    0.0000 </r>
      </set>
      <set comment="kpoint 11">
       <r>  -14.2891    1.0000 </r>
       <r>  -13.1635    1.0000 </r>
       <r>   -5.7891    1.0000 </r>
       <r>   -3.2144    1.0000 </r>
       <r>   -2.7460    1.0000 </r>
       <r>   -2.7141    1.0000 </r>
       <r>   -1.9824    1.0000 </r>
       <r>   -1.4234    1.0000 </r>
       <r>   -0.5281    1.0324 </r>
       <r>    2.3031   -0.0000 </r>
       <r>    2.3484   -0.0000 </r>
       <r>    2.5603   -0.0000 </r>
       <r>    2.7918   -0.0000 </r>
       <r>    4.3246   -0.0000 </r>
       <r>    5.8270    0.0000 </r>
       <r>    6.9716    0.0000 </r>
       <r>    8.4161    0.0000 </r>
       <r>    9.7009    0.0000 </r>
       <r>   10.3946    0.0000 </r>
       <r>   11.4005    0.0000 </r>
       <r>   11.7183    0.0000 </r>
       <r>   12.3372    0.0000 </r>
       <r>   12.5327    0.0000 </r>
       <r>   13.0128    0.0000 </r>
       <r>   14.7263    0.0000 </r>
       <r>   15.3049    0.0000 </r>
       <r>   15.9478    0.0000 </r>
       <r>   16.5814    0.0000 </r>
       <r>   16.6402    0.0000 </r>
       <r>   17.8304    0.0000 </r>
       <r>   19.3431    0.0000 </r>
       <r>   20.2836    0.0000 </r>
       <r>   20.9767    0.0000 </r>
       <r>   21.1595    0.0000 </r>
       <r>   21.3984    0.0000 </r>
       <r>   21.4779    0.0000 </r>
       <r>   22.1653    0.0000 </r>
       <r>   22.5949    0.0000 </r>
       <r>   23.2626    0.0000 </r>
       <r>   23.4613    0.0000 </r>
       <r>   23.5339    0.0000 </r>
       <r>   23.7208    0.0000 </r>
       <r>   24.5314    0.0000 </r>
       <r>   25.6444    0.0000 </r>
       <r>   26.1272    0.0000 </r>
       <r>   26.4886    0.0000 </r>
       <r>   26.5710    0.0000 </r>
       <r>   26.6914    0.0000 </r>
       <r>   26.7896    0.0000 </r>
       <r>   27.0772    0.0000 </r>
       <r>   27.3849    0.0000 </r>
       <r>   28.0991    0.0000 </r>
       <r>   28.8656    0.0000 </r>
       <r>   28.9101    0.0000 </r>
       <r>   28.9681    0.0000 </r>
       <r>   29.4252    0.0000 </r>
       <r>   29.9135    0.0000 </r>
       <r>   30.4401    0.0000 </r>
       <r>   30.7558    0.0000 </r>
       <r>   30.8400    0.0000 </r>
       <r>   31.4795    0.0000 </r>
       <r>   31.8946    0.0000 </r>
       <r>   32.1699    0.0000 </r>
       <r>   32.4371    0.0000 </r>
       <r>   33.3913    0.0000 </r>
       <r>   33.7525    0.0000 </r>
       <r>   34.1316    0.0000 </r>
       <r>   35.3377    0.0000 </r>
       <r>   35.5580    0.0000 </r>
       <r>   35.6241    0.0000 </r>
       <r>   36.2255    0.0000 </r>
       <r>   37.1606    0.0000 </r>
       <r>   37.4133    0.0000 </r>
       <r>   37.8440    0.0000 </r>
       <r>   38.4939    0.0000 </r>
       <r>   38.6252    0.0000 </r>
       <r>   38.9761    0.0000 </r>
       <r>   38.9939    0.0000 </r>
       <r>   40.1166    0.0000 </r>
       <r>   40.1547    0.0000 </r>
       <r>   40.6238    0.0000 </r>
       <r>   40.7019    0.0000 </r>
       <r>   40.8684    0.0000 </r>
       <r>   41.1049    0.0000 </r>
       <r>   41.4654    0.0000 </r>
       <r>   42.5093    0.0000 </r>
       <r>   42.9825    0.0000 </r>
       <r>   43.1694    0.0000 </r>
       <r>   43.5504    0.0000 </r>
       <r>   44.6142    0.0000 </r>
       <r>   44.8612    0.0000 </r>
       <r>   44.9632    0.0000 </r>
       <r>   44.9851    0.0000 </r>
       <r>   46.3420    0.0000 </r>
       <r>   47.1134    0.0000 </r>
       <r>   47.2225    0.0000 </r>
      </set>
      <set comment="kpoint 12">
       <r>  -14.2581    1.0000 </r>
       <r>  -13.1484    1.0000 </r>
       <r>   -5.7547    1.0000 </r>
       <r>   -3.2766    1.0000 </r>
       <r>   -2.8227    1.0000 </r>
       <r>   -2.6807    1.0000 </r>
       <r>   -2.0279    1.0000 </r>
       <r>   -1.4044    1.0000 </r>
       <r>   -0.5459    1.0290 </r>
       <r>    2.2384   -0.0000 </r>
       <r>    2.3290   -0.0000 </r>
       <r>    2.5285   -0.0000 </r>
       <r>    2.8383   -0.0000 </r>
       <r>    4.3707   -0.0000 </r>
       <r>    5.8681    0.0000 </r>
       <r>    7.0895    0.0000 </r>
       <r>    8.4598    0.0000 </r>
       <r>    9.8112    0.0000 </r>
       <r>   10.3164    0.0000 </r>
       <r>   11.4991    0.0000 </r>
       <r>   11.5993    0.0000 </r>
       <r>   12.3452    0.0000 </r>
       <r>   12.5150    0.0000 </r>
       <r>   13.0400    0.0000 </r>
       <r>   14.6872    0.0000 </r>
       <r>   15.1644    0.0000 </r>
       <r>   15.8340    0.0000 </r>
       <r>   16.6041    0.0000 </r>
       <r>   16.6853    0.0000 </r>
       <r>   18.0641    0.0000 </r>
       <r>   19.4215    0.0000 </r>
       <r>   20.0233    0.0000 </r>
       <r>   20.9462    0.0000 </r>
       <r>   21.1758    0.0000 </r>
       <r>   21.3006    0.0000 </r>
       <r>   21.4335    0.0000 </r>
       <r>   22.0337    0.0000 </r>
       <r>   22.5260    0.0000 </r>
       <r>   23.1449    0.0000 </r>
       <r>   23.3931    0.0000 </r>
       <r>   23.3937    0.0000 </r>
       <r>   23.8196    0.0000 </r>
       <r>   24.2810    0.0000 </r>
       <r>   25.4762    0.0000 </r>
       <r>   26.2411    0.0000 </r>
       <r>   26.2957    0.0000 </r>
       <r>   26.7158    0.0000 </r>
       <r>   26.7319    0.0000 </r>
       <r>   26.9965    0.0000 </r>
       <r>   27.0695    0.0000 </r>
       <r>   27.6036    0.0000 </r>
       <r>   28.2984    0.0000 </r>
       <r>   28.8497    0.0000 </r>
       <r>   29.1069    0.0000 </r>
       <r>   29.2074    0.0000 </r>
       <r>   29.3439    0.0000 </r>
       <r>   29.9803    0.0000 </r>
       <r>   30.4332    0.0000 </r>
       <r>   30.7929    0.0000 </r>
       <r>   30.9191    0.0000 </r>
       <r>   31.4931    0.0000 </r>
       <r>   32.0954    0.0000 </r>
       <r>   32.2838    0.0000 </r>
       <r>   32.6301    0.0000 </r>
       <r>   33.4358    0.0000 </r>
       <r>   33.6194    0.0000 </r>
       <r>   34.2241    0.0000 </r>
       <r>   35.4749    0.0000 </r>
       <r>   35.5917    0.0000 </r>
       <r>   35.6635    0.0000 </r>
       <r>   36.2171    0.0000 </r>
       <r>   37.1110    0.0000 </r>
       <r>   37.2687    0.0000 </r>
       <r>   37.7607    0.0000 </r>
       <r>   38.3454    0.0000 </r>
       <r>   38.4295    0.0000 </r>
       <r>   38.8299    0.0000 </r>
       <r>   39.0508    0.0000 </r>
       <r>   40.1176    0.0000 </r>
       <r>   40.1714    0.0000 </r>
       <r>   40.6217    0.0000 </r>
       <r>   40.7224    0.0000 </r>
       <r>   40.8169    0.0000 </r>
       <r>   41.1579    0.0000 </r>
       <r>   41.4507    0.0000 </r>
       <r>   42.6546    0.0000 </r>
       <r>   43.0617    0.0000 </r>
       <r>   43.2070    0.0000 </r>
       <r>   43.4394    0.0000 </r>
       <r>   44.6537    0.0000 </r>
       <r>   44.9587    0.0000 </r>
       <r>   45.1056    0.0000 </r>
       <r>   45.1562    0.0000 </r>
       <r>   46.3288    0.0000 </r>
       <r>   47.1245    0.0000 </r>
       <r>   47.2131    0.0000 </r>
      </set>
      <set comment="kpoint 13">
       <r>  -14.2244    1.0000 </r>
       <r>  -13.1320    1.0000 </r>
       <r>   -5.7180    1.0000 </r>
       <r>   -3.3418    1.0000 </r>
       <r>   -2.9005    1.0000 </r>
       <r>   -2.6445    1.0000 </r>
       <r>   -2.0761    1.0000 </r>
       <r>   -1.3915    1.0000 </r>
       <r>   -0.5671    1.0242 </r>
       <r>    2.1749   -0.0000 </r>
       <r>    2.3134   -0.0000 </r>
       <r>    2.4947   -0.0000 </r>
       <r>    2.8863   -0.0000 </r>
       <r>    4.4200   -0.0000 </r>
       <r>    5.9127    0.0000 </r>
       <r>    7.2099    0.0000 </r>
       <r>    8.5087    0.0000 </r>
       <r>    9.9120    0.0000 </r>
       <r>   10.2355    0.0000 </r>
       <r>   11.4838    0.0000 </r>
       <r>   11.6054    0.0000 </r>
       <r>   12.3588    0.0000 </r>
       <r>   12.4898    0.0000 </r>
       <r>   13.0680    0.0000 </r>
       <r>   14.6434    0.0000 </r>
       <r>   15.0291    0.0000 </r>
       <r>   15.7212    0.0000 </r>
       <r>   16.6323    0.0000 </r>
       <r>   16.7322    0.0000 </r>
       <r>   18.3014    0.0000 </r>
       <r>   19.3875    0.0000 </r>
       <r>   19.8759    0.0000 </r>
       <r>   20.6658    0.0000 </r>
       <r>   21.2178    0.0000 </r>
       <r>   21.3326    0.0000 </r>
       <r>   21.4894    0.0000 </r>
       <r>   21.8966    0.0000 </r>
       <r>   22.4518    0.0000 </r>
       <r>   23.0309    0.0000 </r>
       <r>   23.2798    0.0000 </r>
       <r>   23.2957    0.0000 </r>
       <r>   23.9303    0.0000 </r>
       <r>   24.0758    0.0000 </r>
       <r>   25.3024    0.0000 </r>
       <r>   25.9905    0.0000 </r>
       <r>   26.4154    0.0000 </r>
       <r>   26.7819    0.0000 </r>
       <r>   26.8506    0.0000 </r>
       <r>   27.0813    0.0000 </r>
       <r>   27.2173    0.0000 </r>
       <r>   27.8107    0.0000 </r>
       <r>   28.4995    0.0000 </r>
       <r>   28.8475    0.0000 </r>
       <r>   29.1050    0.0000 </r>
       <r>   29.1623    0.0000 </r>
       <r>   29.6101    0.0000 </r>
       <r>   30.2080    0.0000 </r>
       <r>   30.3262    0.0000 </r>
       <r>   30.8413    0.0000 </r>
       <r>   31.1078    0.0000 </r>
       <r>   31.5024    0.0000 </r>
       <r>   32.2911    0.0000 </r>
       <r>   32.4004    0.0000 </r>
       <r>   32.7348    0.0000 </r>
       <r>   33.4732    0.0000 </r>
       <r>   33.5718    0.0000 </r>
       <r>   34.3373    0.0000 </r>
       <r>   35.3720    0.0000 </r>
       <r>   35.6347    0.0000 </r>
       <r>   35.8373    0.0000 </r>
       <r>   36.1707    0.0000 </r>
       <r>   37.0699    0.0000 </r>
       <r>   37.1675    0.0000 </r>
       <r>   37.6555    0.0000 </r>
       <r>   38.2067    0.0000 </r>
       <r>   38.2290    0.0000 </r>
       <r>   38.6878    0.0000 </r>
       <r>   39.1461    0.0000 </r>
       <r>   40.0808    0.0000 </r>
       <r>   40.2213    0.0000 </r>
       <r>   40.6208    0.0000 </r>
       <r>   40.7421    0.0000 </r>
       <r>   40.7907    0.0000 </r>
       <r>   41.2186    0.0000 </r>
       <r>   41.4444    0.0000 </r>
       <r>   42.8225    0.0000 </r>
       <r>   43.0698    0.0000 </r>
       <r>   43.1482    0.0000 </r>
       <r>   43.4971    0.0000 </r>
       <r>   44.7086    0.0000 </r>
       <r>   44.9615    0.0000 </r>
       <r>   45.3136    0.0000 </r>
       <r>   45.3545    0.0000 </r>
       <r>   46.3287    0.0000 </r>
       <r>   47.1185    0.0000 </r>
       <r>   47.2014    0.0000 </r>
      </set>
      <set comment="kpoint 14">
       <r>  -14.1881    1.0000 </r>
       <r>  -13.1144    1.0000 </r>
       <r>   -5.6795    1.0000 </r>
       <r>   -3.4092    1.0000 </r>
       <r>   -2.9791    1.0000 </r>
       <r>   -2.6048    1.0000 </r>
       <r>   -2.1264    1.0000 </r>
       <r>   -1.3849    1.0000 </r>
       <r>   -0.5918    1.0186 </r>
       <r>    2.1139   -0.0000 </r>
       <r>    2.3034   -0.0000 </r>
       <r>    2.4602   -0.0000 </r>
       <r>    2.9365   -0.0000 </r>
       <r>    4.4725   -0.0000 </r>
[...]
       <r>   42.7983    0.0000 </r>
       <r>   43.0806    0.0000 </r>
       <r>   43.4334    0.0000 </r>
       <r>   43.4988    0.0000 </r>
       <r>   44.4309    0.0000 </r>
       <r>   45.3122    0.0000 </r>
       <r>   45.3258    0.0000 </r>
       <r>   46.4074    0.0000 </r>
       <r>   46.4206    0.0000 </r>
       <r>   47.2811    0.0000 </r>
      </set>
      <set comment="kpoint 150">
       <r>  -14.4400    1.0000 </r>
       <r>  -13.2368    1.0000 </r>
       <r>   -5.9647    1.0000 </r>
       <r>   -2.8798    1.0000 </r>
       <r>   -2.8795    1.0000 </r>
       <r>   -2.1781    1.0000 </r>
       <r>   -1.7375    1.0000 </r>
       <r>   -1.7371    1.0000 </r>
       <r>   -0.4647    1.0306 </r>
       <r>    2.5403   -0.0000 </r>
       <r>    2.5409   -0.0000 </r>
       <r>    2.7321   -0.0000 </r>
       <r>    2.7328   -0.0000 </r>
       <r>    4.0753   -0.0000 </r>
       <r>    5.6260    0.0000 </r>
       <r>    6.3016    0.0000 </r>
       <r>    8.2143    0.0000 </r>
       <r>    9.0301    0.0000 </r>
       <r>   10.9067    0.0000 </r>
       <r>   10.9082    0.0000 </r>
       <r>   12.0581    0.0000 </r>
       <r>   12.4737    0.0000 </r>
       <r>   12.9203    0.0000 </r>
       <r>   12.9216    0.0000 </r>
       <r>   14.8931    0.0000 </r>
       <r>   16.3443    0.0000 </r>
       <r>   16.4149    0.0000 </r>
       <r>   16.4154    0.0000 </r>
       <r>   16.5327    0.0000 </r>
       <r>   16.5330    0.0000 </r>
       <r>   18.7188    0.0000 </r>
       <r>   19.5109    0.0000 </r>
       <r>   21.0611    0.0000 </r>
       <r>   21.7874    0.0000 </r>
       <r>   22.5494    0.0000 </r>
       <r>   22.5503    0.0000 </r>
       <r>   23.9973    0.0000 </r>
       <r>   24.0296    0.0000 </r>
       <r>   24.0322    0.0000 </r>
       <r>   24.2814    0.0000 </r>
       <r>   24.2822    0.0000 </r>
       <r>   24.3876    0.0000 </r>
       <r>   24.8848    0.0000 </r>
       <r>   24.9072    0.0000 </r>
       <r>   24.9142    0.0000 </r>
       <r>   25.3395    0.0000 </r>
       <r>   25.3414    0.0000 </r>
       <r>   26.1021    0.0000 </r>
       <r>   26.4897    0.0000 </r>
       <r>   27.1300    0.0000 </r>
       <r>   27.3298    0.0000 </r>
       <r>   27.3331    0.0000 </r>
       <r>   27.9751    0.0000 </r>
       <r>   28.8562    0.0000 </r>
       <r>   28.8577    0.0000 </r>
       <r>   29.1539    0.0000 </r>
       <r>   29.1618    0.0000 </r>
       <r>   29.7280    0.0000 </r>
       <r>   29.9378    0.0000 </r>
       <r>   31.4152    0.0000 </r>
       <r>   31.4651    0.0000 </r>
       <r>   31.4677    0.0000 </r>
       <r>   31.8361    0.0000 </r>
       <r>   31.8364    0.0000 </r>
       <r>   33.0664    0.0000 </r>
       <r>   33.1010    0.0000 </r>
       <r>   34.3165    0.0000 </r>
       <r>   34.6215    0.0000 </r>
       <r>   34.6337    0.0000 </r>
       <r>   35.8788    0.0000 </r>
       <r>   35.8870    0.0000 </r>
       <r>   37.1290    0.0000 </r>
       <r>   38.3074    0.0000 </r>
       <r>   38.7075    0.0000 </r>
       <r>   38.7117    0.0000 </r>
       <r>   39.3387    0.0000 </r>
       <r>   39.3562    0.0000 </r>
       <r>   40.0401    0.0000 </r>
       <r>   40.2219    0.0000 </r>
       <r>   40.2242    0.0000 </r>
       <r>   40.5791    0.0000 </r>
       <r>   40.5792    0.0000 </r>
       <r>   41.2165    0.0000 </r>
       <r>   41.4369    0.0000 </r>
       <r>   42.1694    0.0000 </r>
       <r>   42.1701    0.0000 </r>
       <r>   42.8053    0.0000 </r>
       <r>   43.1869    0.0000 </r>
       <r>   43.3851    0.0000 </r>
       <r>   43.3959    0.0000 </r>
       <r>   44.4307    0.0000 </r>
       <r>   45.3469    0.0000 </r>
       <r>   45.3564    0.0000 </r>
       <r>   46.3792    0.0000 </r>
       <r>   46.3809    0.0000 </r>
       <r>   47.0687    0.0000 </r>
      </set>
     </set>
    </set>
   </array>
  </eigenvalues>
  <separator name="orbital magnetization" >
   <v name="MAGDIPOLOUT">      0.00000000      0.00000000      0.00000000</v>
  </separator>
  <dos>
   <i name="efermi">     -0.25186674 </i>
   <total>
    <array>
     <dimension dim="1">gridpoints</dimension>
     <dimension dim="2">spin</dimension>
     <field>energy</field>
     <field>total</field>
     <field>integrated</field>
     <set>
      <set comment="spin 1">
       <r>   -17.5756     0.0000     0.0000 </r>
       <r>   -17.3457     0.0000     0.0000 </r>
       <r>   -17.1157     0.0000     0.0000 </r>
       <r>   -16.8858     0.0000     0.0000 </r>
       <r>   -16.6558     0.0000     0.0000 </r>
       <r>   -16.4259     0.0000     0.0000 </r>
       <r>   -16.1959    -0.0000    -0.0000 </r>
       <r>   -15.9660    -0.0000    -0.0000 </r>
       <r>   -15.7361    -0.0000    -0.0000 </r>
       <r>   -15.5061    -0.0000    -0.0000 </r>
       <r>   -15.2762    -0.0000    -0.0000 </r>
       <r>   -15.0462    -0.0000    -0.0000 </r>
       <r>   -14.8163    -0.0075    -0.0017 </r>
       <r>   -14.5863    -0.0072    -0.0034 </r>
       <r>   -14.3564     0.7619     0.1718 </r>
       <r>   -14.1264     0.8931     0.3772 </r>
       <r>   -13.8965     0.5262     0.4982 </r>
       <r>   -13.6665     0.4456     0.6006 </r>
       <r>   -13.4366     0.3676     0.6852 </r>
       <r>   -13.2066     1.1403     0.9474 </r>
       <r>   -12.9767     1.8778     1.3792 </r>
       <r>   -12.7467     1.3418     1.6877 </r>
       <r>   -12.5168     2.2916     2.2146 </r>
       <r>   -12.2868     4.8652     3.3334 </r>
       <r>   -12.0569     2.9684     4.0160 </r>
       <r>   -11.8270    -0.0403     4.0067 </r>
       <r>   -11.5970    -0.0289     4.0000 </r>
       <r>   -11.3671    -0.0002     4.0000 </r>
       <r>   -11.1371    -0.0000     4.0000 </r>
       <r>   -10.9072    -0.0000     4.0000 </r>
       <r>   -10.6772     0.0000     4.0000 </r>
       <r>   -10.4473     0.0000     4.0000 </r>
       <r>   -10.2173     0.0000     4.0000 </r>
       <r>    -9.9874     0.0000     4.0000 </r>
       <r>    -9.7574     0.0000     4.0000 </r>
       <r>    -9.5275     0.0000     4.0000 </r>
       <r>    -9.2975     0.0000     4.0000 </r>
       <r>    -9.0676     0.0000     4.0000 </r>
       <r>    -8.8376     0.0000     4.0000 </r>
       <r>    -8.6077     0.0000     4.0000 </r>
       <r>    -8.3778     0.0000     4.0000 </r>
       <r>    -8.1478     0.0000     4.0000 </r>
       <r>    -7.9179    -0.0000     4.0000 </r>
       <r>    -7.6879    -0.0000     4.0000 </r>
       <r>    -7.4580    -0.0000     4.0000 </r>
       <r>    -7.2280    -0.0000     4.0000 </r>
       <r>    -6.9981    -0.0000     4.0000 </r>
       <r>    -6.7681    -0.0000     4.0000 </r>
       <r>    -6.5382    -0.0055     3.9987 </r>
       <r>    -6.3082    -0.0439     3.9886 </r>
       <r>    -6.0783     0.7696     4.1656 </r>
       <r>    -5.8483     2.0723     4.6421 </r>
       <r>    -5.6184     2.6102     5.2423 </r>
       <r>    -5.3884     2.9782     5.9272 </r>
       <r>    -5.1585     3.1381     6.6488 </r>
       <r>    -4.9286     1.4942     6.9924 </r>
       <r>    -4.6986     0.4558     7.0972 </r>
       <r>    -4.4687     0.6875     7.2552 </r>
       <r>    -4.2387     3.3529     8.0262 </r>
       <r>    -4.0088     2.4893     8.5986 </r>
       <r>    -3.7788     1.9800     9.0539 </r>
       <r>    -3.5489     2.4469     9.6166 </r>
       <r>    -3.3189     4.2344    10.5903 </r>
       <r>    -3.0890     2.5256    11.1710 </r>
       <r>    -2.8590     2.1568    11.6670 </r>
       <r>    -2.6291     2.2196    12.1774 </r>
       <r>    -2.3991     2.7004    12.7983 </r>
       <r>    -2.1692     4.4532    13.8223 </r>
       <r>    -1.9392     2.3300    14.3581 </r>
       <r>    -1.7093     1.9675    14.8105 </r>
       <r>    -1.4794     2.0788    15.2885 </r>
       <r>    -1.2494     2.8053    15.9336 </r>
       <r>    -1.0195     2.3525    16.4745 </r>
       <r>    -0.7895     1.6665    16.8577 </r>
       <r>    -0.5596     2.2553    17.3763 </r>
       <r>    -0.3296     2.4225    17.9334 </r>
       <r>    -0.0997     0.3388    18.0113 </r>
       <r>     0.1303    -0.0478    18.0003 </r>
       <r>     0.3602    -0.0013    18.0000 </r>
       <r>     0.5902    -0.0000    18.0000 </r>
       <r>     0.8201    -0.0000    18.0000 </r>
       <r>     1.0501    -0.0065    17.9985 </r>
       <r>     1.2800    -0.0287    17.9919 </r>
       <r>     1.5100     0.7462    18.1635 </r>
       <r>     1.7399     1.8309    18.5845 </r>
       <r>     1.9698     3.6164    19.4161 </r>
       <r>     2.1998     3.0997    20.1288 </r>
       <r>     2.4297     3.9699    21.0417 </r>
       <r>     2.6597     5.3945    22.2822 </r>
       <r>     2.8896     4.1757    23.2423 </r>
       <r>     3.1196     1.8973    23.6786 </r>
       <r>     3.3495     1.7153    24.0731 </r>
       <r>     3.5795     1.3728    24.3887 </r>
       <r>     3.8094     1.8675    24.8182 </r>
       <r>     4.0394     2.1773    25.3188 </r>
       <r>     4.2693     1.8859    25.7525 </r>
       <r>     4.4993     1.4920    26.0956 </r>
       <r>     4.7292     1.4399    26.4266 </r>
       <r>     4.9592     0.4217    26.5236 </r>
       <r>     5.1891     0.2821    26.5885 </r>
       <r>     5.4191     0.2428    26.6443 </r>
       <r>     5.6490     0.6466    26.7930 </r>
       <r>     5.8789     1.5024    27.1385 </r>
       <r>     6.1089     1.7809    27.5480 </r>
       <r>     6.3388     1.5828    27.9119 </r>
       <r>     6.5688     1.6111    28.2824 </r>
       <r>     6.7987     1.1326    28.5428 </r>
       <r>     7.0287     1.5713    28.9042 </r>
       <r>     7.2586     1.2827    29.1991 </r>
       <r>     7.4886     1.3241    29.5036 </r>
       <r>     7.7185     1.8231    29.9228 </r>
       <r>     7.9485     2.3245    30.4573 </r>
       <r>     8.1784     1.8711    30.8876 </r>
       <r>     8.4084     1.9458    31.3350 </r>
       <r>     8.6383     3.3989    32.1166 </r>
       <r>     8.8683     3.5229    32.9266 </r>
       <r>     9.0982     3.3181    33.6896 </r>
       <r>     9.3281     3.4192    34.4759 </r>
       <r>     9.5581     1.7681    34.8824 </r>
       <r>     9.7880     3.2753    35.6356 </r>
       <r>    10.0180     2.5578    36.2237 </r>
       <r>    10.2479     3.2338    36.9673 </r>
       <r>    10.4779     3.8880    37.8614 </r>
       <r>    10.7078     3.3155    38.6238 </r>
       <r>    10.9378     2.7657    39.2597 </r>
       <r>    11.1677     2.6091    39.8597 </r>
       <r>    11.3977     4.4137    40.8746 </r>
       <r>    11.6276     3.9168    41.7753 </r>
       <r>    11.8576     2.8752    42.4364 </r>
       <r>    12.0875     2.6165    43.0381 </r>
       <r>    12.3175     2.9964    43.7271 </r>
       <r>    12.5474     3.9731    44.6407 </r>
       <r>    12.7773     4.2059    45.6078 </r>
       <r>    13.0073     4.2132    46.5766 </r>
       <r>    13.2372     3.9684    47.4891 </r>
       <r>    13.4672     3.5366    48.3024 </r>
       <r>    13.6971     2.7884    48.9436 </r>
       <r>    13.9271     2.2429    49.4593 </r>
       <r>    14.1570     1.5944    49.8259 </r>
       <r>    14.3870     2.2900    50.3525 </r>
       <r>    14.6169     3.2408    51.0977 </r>
       <r>    14.8469     3.2991    51.8563 </r>
       <r>    15.0768     3.4026    52.6387 </r>
       <r>    15.3068     2.7456    53.2701 </r>
       <r>    15.5367     3.0740    53.9769 </r>
       <r>    15.7667     2.7284    54.6043 </r>
       <r>    15.9966     3.3333    55.3708 </r>
       <r>    16.2265     2.1709    55.8700 </r>
       <r>    16.4565     4.1786    56.8309 </r>
       <r>    16.6864     5.4887    58.0930 </r>
       <r>    16.9164     3.0381    58.7916 </r>
       <r>    17.1463     2.0678    59.2671 </r>
       <r>    17.3763     2.2878    59.7932 </r>
       <r>    17.6062     2.6392    60.4000 </r>
       <r>    17.8362     2.6831    61.0170 </r>
       <r>    18.0661     1.5734    61.3788 </r>
       <r>    18.2961     1.5022    61.7242 </r>
       <r>    18.5260     3.0755    62.4314 </r>
       <r>    18.7560     3.2573    63.1804 </r>
       <r>    18.9859     3.3222    63.9444 </r>
       <r>    19.2159     2.7317    64.5725 </r>
       <r>    19.4458     2.5084    65.1493 </r>
       <r>    19.6758     4.3892    66.1586 </r>
       <r>    19.9057     3.8859    67.0522 </r>
       <r>    20.1356     3.4727    67.8507 </r>
       <r>    20.3656     3.8960    68.7466 </r>
       <r>    20.5955     2.7015    69.3678 </r>
       <r>    20.8255     1.3633    69.6813 </r>
       <r>    21.0554     2.2027    70.1878 </r>
       <r>    21.2854     3.3104    70.9490 </r>
       <r>    21.5153     5.0003    72.0988 </r>
       <r>    21.7453     6.2577    73.5377 </r>
       <r>    21.9752     3.9540    74.4469 </r>
       <r>    22.2052     2.9970    75.1361 </r>
       <r>    22.4351     3.8239    76.0154 </r>
       <r>    22.6651     4.3349    77.0122 </r>
       <r>    22.8950     2.8443    77.6662 </r>
       <r>    23.1250     2.0872    78.1462 </r>
       <r>    23.3549     2.5984    78.7437 </r>
       <r>    23.5848     3.5968    79.5707 </r>
       <r>    23.8148     4.0818    80.5093 </r>
       <r>    24.0447     4.4842    81.5405 </r>
       <r>    24.2747     4.5549    82.5878 </r>
       <r>    24.5046     3.3282    83.3532 </r>
       <r>    24.7346     3.0719    84.0595 </r>
       <r>    24.9645     3.8340    84.9411 </r>
       <r>    25.1945     4.8749    86.0621 </r>
       <r>    25.4244     5.8290    87.4025 </r>
       <r>    25.6544     4.9527    88.5413 </r>
       <r>    25.8843     3.8012    89.4154 </r>
       <r>    26.1143     5.2601    90.6249 </r>
       <r>    26.3442     5.1402    91.8069 </r>
       <r>    26.5742     4.6543    92.8771 </r>
       <r>    26.8041     6.6395    94.4039 </r>
       <r>    27.0340     5.6181    95.6957 </r>
       <r>    27.2640     4.3627    96.6989 </r>
       <r>    27.4939     4.4785    97.7287 </r>
       <r>    27.7239     4.5082    98.7654 </r>
       <r>    27.9538     3.9076    99.6639 </r>
       <r>    28.1838     4.1330   100.6143 </r>
       <r>    28.4137     3.5935   101.4406 </r>
       <r>    28.6437     3.1247   102.1591 </r>
       <r>    28.8736     5.3083   103.3797 </r>
       <r>    29.1036     4.9177   104.5106 </r>
       <r>    29.3335     4.0312   105.4375 </r>
       <r>    29.5635     3.3582   106.2097 </r>
       <r>    29.7934     3.4533   107.0038 </r>
       <r>    30.0234     3.8091   107.8797 </r>
       <r>    30.2533     3.6604   108.7214 </r>
       <r>    30.4832     4.3334   109.7178 </r>
       <r>    30.7132     3.7200   110.5732 </r>
       <r>    30.9431     4.8678   111.6926 </r>
       <r>    31.1731     5.3249   112.9170 </r>
       <r>    31.4030     4.5763   113.9693 </r>
       <r>    31.6330     6.2571   115.4081 </r>
       <r>    31.8629     5.3549   116.6394 </r>
       <r>    32.0929     4.3767   117.6459 </r>
       <r>    32.3228     3.8522   118.5317 </r>
       <r>    32.5528     3.5450   119.3468 </r>
       <r>    32.7827     3.2351   120.0907 </r>
       <r>    33.0127     3.9428   120.9974 </r>
       <r>    33.2426     4.8138   122.1043 </r>
       <r>    33.4726     3.7505   122.9667 </r>
       <r>    33.7025     3.6850   123.8141 </r>
       <r>    33.9325     4.6322   124.8792 </r>
       <r>    34.1624     4.8072   125.9846 </r>
       <r>    34.3923     3.9682   126.8971 </r>
       <r>    34.6223     4.1245   127.8455 </r>
       <r>    34.8522     5.1568   129.0313 </r>
       <r>    35.0822     5.4473   130.2839 </r>
       <r>    35.3121     6.0096   131.6658 </r>
       <r>    35.5421     4.4164   132.6813 </r>
       <r>    35.7720     4.0062   133.6025 </r>
       <r>    36.0020     4.5112   134.6399 </r>
       <r>    36.2319     4.0635   135.5743 </r>
       <r>    36.4619     4.1896   136.5376 </r>
       <r>    36.6918     3.9405   137.4437 </r>
       <r>    36.9218     3.8231   138.3228 </r>
       <r>    37.1517     4.3404   139.3209 </r>
       <r>    37.3817     4.4125   140.3355 </r>
       <r>    37.6116     4.3755   141.3417 </r>
       <r>    37.8415     4.4425   142.3632 </r>
       <r>    38.0715     4.9074   143.4917 </r>
       <r>    38.3014     4.6559   144.5623 </r>
       <r>    38.5314     4.3374   145.5596 </r>
       <r>    38.7613     5.9902   146.9371 </r>
       <r>    38.9913     5.3829   148.1749 </r>
       <r>    39.2212     4.8362   149.2869 </r>
       <r>    39.4512     5.8782   150.6386 </r>
       <r>    39.6811     4.3332   151.6350 </r>
       <r>    39.9111     6.4421   153.1164 </r>
       <r>    40.1410     8.1558   154.9918 </r>
       <r>    40.3710     8.6473   156.9802 </r>
       <r>    40.6009     9.7295   159.2174 </r>
       <r>    40.8309     9.4340   161.3868 </r>
       <r>    41.0608     6.5420   162.8911 </r>
       <r>    41.2907     5.4639   164.1475 </r>
       <r>    41.5207     5.8822   165.5001 </r>
       <r>    41.7506     5.6573   166.8009 </r>
       <r>    41.9806     4.2783   167.7847 </r>
       <r>    42.2105     4.4721   168.8131 </r>
       <r>    42.4405     3.8260   169.6928 </r>
       <r>    42.6704     4.1588   170.6491 </r>
       <r>    42.9004     5.2568   171.8579 </r>
       <r>    43.1303     4.0850   172.7972 </r>
       <r>    43.3603     5.2130   173.9959 </r>
       <r>    43.5902     4.9738   175.1396 </r>
       <r>    43.8202     4.3644   176.1432 </r>
       <r>    44.0501     4.7754   177.2413 </r>
       <r>    44.2801     4.7023   178.3226 </r>
       <r>    44.5100     4.1701   179.2815 </r>
       <r>    44.7399     4.0999   180.2242 </r>
       <r>    44.9699     4.6003   181.2821 </r>
       <r>    45.1998     5.1609   182.4688 </r>
       <r>    45.4298     4.3801   183.4760 </r>
       <r>    45.6597     4.3503   184.4763 </r>
       <r>    45.8897     4.7451   185.5674 </r>
       <r>    46.1196     4.2270   186.5394 </r>
       <r>    46.3496     5.6718   187.8436 </r>
       <r>    46.5795     5.1821   189.0353 </r>
       <r>    46.8095     3.2030   189.7718 </r>
       <r>    47.0394     2.4799   190.3420 </r>
       <r>    47.2694     3.1620   191.0691 </r>
       <r>    47.4993     1.9418   191.5156 </r>
       <r>    47.7293     1.2504   191.8031 </r>
       <r>    47.9592     0.6086   191.9431 </r>
       <r>    48.1891     0.1804   191.9846 </r>
       <r>    48.4191     0.0687   192.0004 </r>
       <r>    48.6490    -0.0008   192.0002 </r>
       <r>    48.8790    -0.0008   192.0000 </r>
       <r>    49.1089    -0.0000   192.0000 </r>
       <r>    49.3389    -0.0000   192.0000 </r>
       <r>    49.5688    -0.0000   192.0000 </r>
       <r>    49.7988     0.0000   192.0000 </r>
       <r>    50.0287     0.0000   192.0000 </r>
       <r>    50.2587     0.0000   192.0000 </r>
       <r>    50.4886     0.0000   192.0000 </r>
       <r>    50.7186     0.0000   192.0000 </r>
       <r>    50.9485     0.0000   192.0000 </r>
       <r>    51.1785     0.0000   192.0000 </r>
       <r>    51.4084     0.0000   192.0000 </r>
      </set>
     </set>
    </array>
   </total>
  </dos>
 </calculation>
 <structure name="finalpos" >
  <crystal>
   <varray name="basis" >
    <v>       2.73211807      -1.57738910       0.00000000 </v>
    <v>       0.00000000       3.15477820       0.00000000 </v>
    <v>       0.00000000       0.00000000      12.05794237 </v>
   </varray>
   <i name="volume">    103.93013667 </i>
   <varray name="rec_basis" >
    <v>       0.36601639      -0.00000000       0.00000000 </v>
    <v>       0.18300820       0.31697949       0.00000000 </v>
    <v>       0.00000000       0.00000000       0.08293289 </v>
   </varray>
  </crystal>
  <varray name="positions" >
   <v>       0.33333333       0.66666667       0.25000000 </v>
   <v>       0.66666667       0.33333333       0.11965052 </v>
   <v>       0.66666667       0.33333333       0.38034948 </v>
  </varray>
 </structure>
</modeling>
