supercell 333
    1
    18.454396   0.200280    0.263138
    0.000000    18.682760   0.170556
    0.000000    0. 000000   18.491970
    C   H   I   N   Sn
    27  135 81  54  27
Direct configuration=   10
    0.17563825  0.17257251  0.14832691
    0.17696755  0.17290943  0.17290943
    0.17817508  0.17522448  0.81991429
    0.17524678  0.50954709  0.15173778
    0.17630161  0.50896216  0.48489317
    0.17821538  0.50393542  0.81750355