     697
 i =        0, time =        0.000, E =      -950.0027565385
  O        12.4158800000        7.1140030000        7.9588590000
  O        13.3572900000        8.6856740000        5.5558660000
  O        13.1462000000        5.4673170000        5.8375370000
  O         9.2291680000        5.1517790000        4.0233860000
  O        10.5972200000        6.9826720000        5.5574960000
  O        12.2592700000       10.8858400000        4.1455320000
  O        15.6904500000        5.5765080000        4.2467200000
  O         0.9379327000       15.6311600000       11.2289900000
  O        -1.7991730000       14.2202700000       11.4715300000
  O         1.1887350000       12.7300600000       11.5678300000
  O        -3.0335760000       16.4000200000        9.8221480000
  O         3.4160460000       15.9787300000        9.5044970000
  O         0.0734660000       14.1596500000        2.0359710000
  O        -0.1254631000       10.6386600000        9.7499540000
  O        24.6385400000        0.0539510000        8.5113710000
  O         9.6509770000       19.2050400000        6.5605190000
  O        12.5741100000       19.8122500000       10.6306000000
  O        11.8903300000       18.0613200000        0.7474348000
  O        10.9648000000       20.6750400000        4.8944810000
  O       -10.9004000000       20.5213500000        4.7407790000
  O        -8.8218790000       20.3809900000        6.3431230000
  O        -0.5462794000        3.6880100000        6.5077710000
  O        22.1045800000        2.5436480000        0.7787574000
  O        23.1133800000        0.8053953000       10.7728900000
  O         3.5501960000        1.2367880000        0.7350920000
  O         1.4505820000        0.9562860000       10.7153700000
  O        -0.0206003000        0.0425589000        2.6036210000
  O         0.2597371000        1.6320700000        4.7420600000
  O        15.7060900000       14.3114000000        7.4752790000
  O        14.6914700000       14.9300100000        0.0577547000
  O        -7.9955100000       15.0918700000        1.6540440000
  O        -6.4240570000       17.3404000000        2.4609810000
  O        -8.7842770000       16.9541400000        6.6967550000
  O        13.0808000000       14.0055400000        8.3225040000
  O        11.8512300000       14.3094700000        0.5331833000
  O        -6.3025650000       16.5964700000        5.2766400000
  O        -5.0022660000       14.7694500000        3.5201280000
  O        13.9698400000       12.4226900000       10.2480900000
  O        13.6377500000       13.7076300000        2.8436060000
  O        -6.2102360000       16.3088800000        8.6636760000
  O         4.5459580000        6.6073800000        7.4472170000
  O         4.0751300000        4.5194130000        0.6247060000
  O         3.4531510000        7.2096530000        1.7137790000
  O         0.6703774000        7.3411990000        2.6653340000
  O         1.8465780000        5.3250240000        6.7527630000
  O         6.0538730000        4.2561070000        8.1895280000
  O         6.4046980000        5.5485650000       10.5376800000
  O         1.0287720000        7.7014450000        5.3639710000
  O         2.2409620000        9.9274050000        3.4695920000
  O         8.3859220000        6.3728760000        8.5884550000
  O         6.1217540000        5.1586570000        2.8576950000
  O         1.2577330000        7.8611480000        8.4820280000
  O        17.0106100000        0.5958249000        7.4309150000
  O        19.1261100000        1.1316800000        0.7212356000
  O         4.6381630000       20.9108300000        1.6621950000
  O         5.7652210000       18.5292500000        2.3592110000
  O         6.6494190000       20.3904500000        6.8889990000
  O        18.3970300000        3.1506500000        8.3065520000
  O        17.7442800000        3.2916530000       10.9155300000
  O         5.1391460000       18.2956100000        4.8911040000
  O         2.9411230000       18.3785800000        3.3502400000
  O        15.2362600000        3.0737000000        9.2184010000
  O        17.4270800000        2.8445690000        2.7688510000
  O         5.0298160000       18.7476300000        8.6547100000
  O         9.6890750000       16.2089300000        0.7791067000
  O         8.1895990000       15.8209600000        3.1227150000
  O         8.3215150000       14.9411900000        6.0321100000
  O         6.8925270000       17.3191200000        6.5579570000
  O        11.0699100000       11.7047800000        1.7243750000
  O         9.8850260000       15.1752600000        8.3592990000
  O        -6.4257940000       20.7932600000        1.6497360000
  O        -5.0787110000       18.3615900000        7.1648480000
  O        -5.3306300000       20.7969100000        5.3458060000
  O         5.9825160000        0.8915879000        7.4000580000
  O         7.4232940000        3.0728400000        0.9453845000
  O         6.8564150000        0.8791211000       11.0614300000
  O        21.2378800000        5.4471120000       11.4149400000
  O        -2.3981940000        6.1751270000        2.5344550000
  O        -3.9710120000        7.6298690000        7.1733480000
  O        -1.1122900000        8.0240760000        6.6746310000
  O        18.6022900000        5.2033650000        0.8094978000
  O        21.6869900000        4.8729960000        6.7490370000
  N        14.2515400000        9.7552350000       11.5499000000
  N         9.2701210000        7.4349140000       11.5447800000
  N        13.7427400000        4.2720130000       11.5302200000
  N         1.3272280000       17.2017600000        5.7152740000
  N         1.8516660000       11.7297100000        5.7036300000
  N        -3.1407960000       14.0515400000        5.7170200000
  N        13.8889200000        9.5978960000        2.2676880000
  N         9.5848330000        7.1838600000        2.2610510000
  N        13.8119800000        4.6571930000        2.2474280000
  N         1.3942410000       16.8032500000        8.0746010000
  N         1.4868180000       11.8763000000        8.0657520000
  N        -2.8314200000       14.2907700000        8.0798410000
  N        14.7259700000        7.7246590000        1.0433110000
  N        10.7715800000        8.8700960000        1.0519280000
  N        11.7549300000        4.8540810000        1.0473870000
  N        -0.6624351000       16.6177500000        6.8725810000
  N         2.3166610000       13.7577100000        6.8483610000
  N        -1.6380940000       12.6146400000        6.8639640000
  N        -5.5089580000       13.2345300000        0.9962692000
  N         3.7254220000       10.1659900000        0.9878854000
  N         1.7711270000       19.6317000000        1.0190920000
  N        14.1625600000        1.8734520000        6.8229770000
  N         6.9020830000        8.2779250000        6.8236750000
  N        16.1267800000       11.3928900000        6.8176210000
  N        -6.4261670000       14.3593400000       10.7383100000
  N         3.1934140000        8.8030330000       10.7399400000
  N         3.2143860000       19.8612600000       10.7685800000
  N        15.6019700000        1.6595830000        4.9247560000
  N         5.9780490000        7.1425900000        4.9303450000
  N        15.6104100000       12.7648800000        4.9270840000
  N        17.3095600000       12.4304300000        0.0044248000
  N         5.4013650000        8.7944350000        0.0172333000
  N        14.4944000000        0.2708295000        0.0298089000
  N         2.1039570000       21.2338900000        5.8472010000
  N         4.9115510000        9.0912730000        5.8177420000
  N        -6.9963970000       12.7350000000        5.8377700000
  N         8.0168550000       20.5050200000        4.1419230000
  N        -9.3515290000       18.1898500000        4.1404090000
  N         1.3009190000        4.2849090000        4.1303950000
  N        13.7232500000       17.2239000000        9.9781790000
  N        20.4627700000        1.0149660000        9.9565210000
  N         3.0593880000        3.3073440000        9.9673500000
  N         9.2506370000       19.1646300000        2.5938400000
  N        -8.8155500000       19.9208000000        2.5810310000
  N        -0.4587903000        3.8997300000        2.5582090000
  N        11.9594500000       17.6084300000        8.4104170000
  N        21.6784300000        2.3514880000        8.3908550000
  N         3.6029370000        1.5731750000        8.4144920000
  N        21.6273000000        0.0541659000        2.3769100000
  N        13.9460100000       18.7123800000        2.3922800000
  N         1.6227050000        2.7340880000        2.3597930000
  N       -10.7775400000       18.7712800000        8.2036180000
  N         9.2325190000       21.4610900000        8.1809120000
  N         1.5556930000        2.7955620000        8.2004740000
  N        14.3807200000        7.5819360000        3.3242740000
  N        11.0628400000        8.6308630000        3.3324250000
  N        11.8265400000        5.2098140000        3.3313770000
  N        -0.5928161000       16.2452600000        9.1529610000
  N         1.9688150000       13.8920500000        9.1293240000
  N        -1.3513030000       12.8422600000        9.1451600000
  N        13.5153900000       11.5900000000        1.1333200000
  N         8.0702170000        5.8522810000        1.1075870000
  N        15.7196200000        4.0175190000        1.0848810000
  N         3.3021240000       17.4519500000        6.9168280000
  N         1.1188680000        9.8874260000        6.9207870000
  N        -4.3503790000       15.6221300000        6.9319660000
  N         8.1090600000       18.1984500000        4.3752710000
  N        -7.3868090000       19.4073000000        4.3423180000
  N        -0.7401205000        5.3667230000        4.3404550000
  N        11.6784900000       16.1506800000       10.1998800000
  N        20.5506300000        3.3213150000       10.1797400000
  N         5.0114500000        2.0748550000       10.1959200000
  N        10.3724800000       20.2277400000        0.8593346000
  N       -10.3147800000       20.3629400000        0.8622456000
  N        -0.0814083000        2.4073730000        0.8182309000
  N        12.3341000000       19.0986400000        6.6679940000
  N        22.7822800000        1.2825710000        6.6476170000
  N         2.1195940000        1.1370540000        6.6802200000
  N        -4.4683970000       15.1021800000        0.1009543000
  N         1.5924260000       10.1720100000        0.0825567000
  N         2.8720000000       17.7950000000        0.1330921000
  N        15.2150400000        3.7286340000        5.9155520000
  N         7.9278770000        6.3937250000        5.9467580000
  N        13.9894400000       11.4300800000        5.9220730000
  N        16.3790700000       13.5915600000        9.8682580000
  N         4.8447860000        7.4000930000        9.8958550000
  N        15.9694300000        0.4960908000        9.9001630000
  N         3.5845710000       21.0251800000        4.0763670000
  N         3.9732460000        7.9209030000        4.0473730000
  N        -7.5409390000       14.1385900000        4.0719420000
  H        18.0062500000        4.7530580000        7.1240930000
  H        11.6933800000       13.2330300000        7.1571630000
  H         7.4904310000        3.5093910000        7.1480800000
  H        -4.9053460000       17.9925400000        1.3255640000
  H         5.6233770000       16.7634900000        1.3067010000
  H        -0.6984235000        8.2805040000        1.3050710000
  H        19.3367000000        6.3004400000        3.2325190000
  H         9.7033470000       13.6096100000        3.2569710000
  H         8.1544800000        1.5918760000        3.2499850000
  H        -4.2319900000       19.9012400000        9.0685420000
  H         6.9406770000       15.2307200000        9.0485140000
  H        -2.7054600000        7.8972590000        9.0587600000
  H        17.1956400000        8.9006180000        5.9896090000
  H         8.5405480000       10.4314500000        5.9928690000
  H        11.4896100000        2.1625520000        5.9906570000
  H        -0.9008274000       19.3202500000        0.1659284000
  H         4.7910510000       12.6256000000        0.1514897000
  H        -3.8795520000       11.0601600000        0.1645311000
  H        -5.1346790000       10.0920500000        4.8369590000
  H         6.2577660000       12.0450300000        4.8270620000
  H        -1.1362410000       20.9011600000        4.8548910000
  H        11.2672300000        0.5994789000       10.6611100000
  H         7.2684200000       11.4277100000       10.6563300000
  H        18.6583800000        9.4854810000       10.6541200000
  H        -5.1256200000       12.0770600000        3.2752520000
  H         4.5309420000       11.0741300000        3.2601150000
  H         0.5876040000       19.8954400000        3.3063420000
  H        12.9840000000        1.6114350000        9.1052200000
  H         7.2773550000        9.4407720000        9.0967200000
  H        16.9350300000       10.4667000000        9.0903160000
  H        16.9856700000        9.9770580000        0.5761501000
  H         7.7063620000        9.7118170000        0.5955957000
  H        12.5159000000        1.7692040000        0.5781296000
  H         0.1511514000       19.7026300000        6.4121730000
  H         4.6108610000       11.5564700000        6.3701380000
  H        -4.7095190000       11.7862400000        6.4055360000
  H        17.0969800000        7.9202580000        2.0557660000
  H         9.4369080000       10.8151200000        2.0854580000
  H        10.6827300000        2.7136690000        2.0490120000
  H        -1.6794180000       18.7523600000        7.8882960000
  H         4.7180820000       13.6126200000        7.8481230000
  H        -2.9836880000       10.6640200000        7.8857340000
  H        18.0735100000        2.8439250000        6.1275910000
  H        13.3112500000       14.2619700000        6.1698590000
  H         5.7875580000        4.4061380000        6.1504140000
  H        -6.6001520000       17.0985800000        0.3322062000
  H         5.6931200000       18.6842300000        0.3126441000
  H         0.9206831000        7.2657530000        0.3081029000
  H        18.9651500000        0.6164595000        5.3993690000
  H        14.7959600000       16.1427300000        5.4299930000
  H         3.4179070000        4.7498330000        5.4065890000
  H        -8.9732780000       16.7561800000       11.2434300000
  H         6.5860050000       20.9078200000       11.2217700000
  H         2.4034060000        5.3798340000       11.2223500000
  H        21.6788000000        2.5859920000        2.6056000000
  H        11.7309800000       17.4981600000        2.6349430000
  H         3.7827550000        1.4121820000        2.6170110000
  H        -8.6164960000       20.0893100000        8.4488430000
  H         9.2905970000       18.9281900000        8.4257870000
  H        -0.6646689000        4.0108560000        8.4367330000
  H        20.8284800000        4.8239890000        3.3396440000
  H        10.2183500000       15.6455600000        3.3762070000
  H         6.1404930000        1.0297970000        3.3649120000
  H        -6.2542910000       20.4704100000        9.1846330000
  H         8.4364300000       16.6938400000        9.1642560000
  H        -2.1770510000        5.8660380000        9.1719410000
  H        15.2267000000        8.4079660000        6.8889990000
  H         9.9443450000        8.9844460000        6.8949370000
  H        12.0301800000        4.1387480000        6.8816630000
  H        -0.3650963000       17.3545800000        1.0677640000
  H         2.8137980000       13.1391000000        1.0434280000
  H        -2.4769960000       12.5140400000        1.0647370000
  H        14.0404500000        9.1467290000        8.9898270000
  H         9.8930930000        7.5793570000        8.9899440000
  H        13.2807200000        4.7872340000        8.9756220000
  H         0.8771247000       16.7045900000        3.1663800000
  H         1.6258080000       12.3797000000        3.1368040000
  H        -2.5297380000       13.9131100000        3.1633530000
  H        16.5572800000        6.4919550000       11.3588200000
  H        10.9265800000       11.0790800000       11.3741900000
  H         9.7686220000        3.8494330000       11.3804800000
  H        -2.6452730000       17.6310000000        5.5574960000
  H         4.1726710000       14.9773000000        5.5373520000
  H        -1.4755250000       10.4131800000        5.5370020000
  H        17.8284200000        5.8125170000        9.2799980000
  H        10.8802900000       12.5262900000        9.3023550000
  H         8.5329780000        3.0908950000        9.3087590000
  H        -3.8728500000       18.3974900000        3.4832160000
  H         5.4515010000       15.6662000000        3.4673800000
  H        -1.5211930000        8.9691850000        3.4607430000
  H        14.5259200000        6.5643910000        3.2365940000
  H        11.8684800000        9.2701070000        3.2499850000
  H        10.8703600000        5.5904800000        3.2593000000
  H        -1.5501080000       15.8678100000        9.0754120000
  H         2.1054470000       14.9119600000        9.0452530000
  H        -0.5519879000       12.1967800000        9.0621370000
  H        14.0950500000        8.0010770000        4.2102740000
  H        10.8537400000        8.1577710000        4.2127190000
  H        12.3456400000        5.2487190000        4.2099240000
  H        -0.0749552000       16.1943100000       10.0315100000
  H         1.6821480000       13.4686100000       10.0134600000
  H        -1.5740590000       13.2990200000       10.0309300000
  H        13.4893300000       12.0577200000        2.0440050000
  H         7.6825350000        5.5698450000        2.0117510000
  H        16.1609100000        3.8159020000        1.9864830000
  H         3.7421750000       17.6466900000        7.8201780000
  H         1.0941720000        9.4104650000        7.8268150000
  H        -4.7417850000       15.8925300000        7.8384590000
  H        13.7233800000       12.1544400000        0.3058905000
  H         7.4873290000        5.7450240000        0.2739857000
  H        16.1054400000        3.5728000000        0.2481358000
  H         3.6862070000       17.9048400000        6.0835760000
  H         1.3264840000        9.3287860000        6.0892820000
  H        -4.9373630000       15.7244500000        6.1009260000
  H         8.5277660000       17.2982700000        4.1314430000
  H        -6.8172000000       20.2185000000        4.0915040000
  H        -1.7255830000        5.4615130000        4.0853320000
  H        10.6919100000       16.0582500000        9.9474380000
  H        20.9596600000        4.2240800000        9.9283420000
  H         5.5793220000        1.2602170000        9.9515140000
  H         7.6286760000       18.3138800000        5.2704690000
  H        -7.2383880000       18.9352800000        5.2370500000
  H        -0.4070414000        5.7256790000        5.2377490000
  H        12.0150400000       15.7887100000       11.0946100000
  H        20.0717300000        3.2071800000       11.0757500000
  H         5.1513080000        2.5449370000       11.0929800000
  H        10.4943500000       21.0741900000        0.2986712000
  H       -11.1212900000       20.0519100000        0.3161373000
  H         0.5988969000        1.8889280000        0.2578004000
  H        13.0109300000       19.6226700000        6.1089610000
  H        22.8955800000        0.4350467000        6.0870700000
  H         1.3244980000        1.4553860000        6.1213030000
  H        10.5320700000       19.3107900000        0.4345578000
  H        -9.6058060000       20.9585500000        0.4280371000
  H        -0.9471159000        2.7370970000        0.3834402000
  H        11.4644200000       18.7749300000        6.2373950000
  H        22.9369100000        2.1978030000        6.2172510000
  H         2.8324130000        0.5395095000        6.2540460000
  H        -4.4471760000       15.8951100000       11.0997400000
  H         0.8889140000        9.7917760000       11.0886800000
  H         3.5632260000       17.3827400000       11.1463100000
  H        15.9062600000        4.1451960000        5.2861890000
  H         7.9534410000        5.6035910000        5.2986480000
  H        13.2910200000       11.8169800000        5.2831610000
  H        -3.8179990000       15.0740300000        0.8884448000
  H         1.2978170000       10.7429000000        0.8776158000
  H         2.5278760000       17.2544200000        0.9297814000
  H        14.8838200000        4.2610510000        6.7230700000
  H         8.5844790000        6.4287610000        6.7287760000
  H        13.6888800000       10.8497300000        6.7073510000
  H        15.7474200000       12.7984100000        9.7292280000
  H         5.8446440000        7.2158860000        9.7798800000
  H        15.6076800000        1.4450690000        9.7731260000
  H         3.2519880000       20.0643800000        3.9641170000
  H         3.3506460000        8.7198500000        3.8987940000
  H        -6.5393440000       14.2995800000        3.9383840000
  H        16.4748800000       14.2896900000        9.1266460000
  H         4.1940160000        7.1258250000        9.1562220000
  H        16.5284900000        0.0685672000        9.1576190000
  H         4.1490930000       21.4527000000        3.3383630000
  H         4.0676840000        7.2182510000        3.3098350000
  H        -8.1959280000       14.4184500000        3.3380140000
  H        11.4970600000        7.1449550000        7.6281660000
  H        12.9522300000        7.6556620000        7.3290290000
  H        13.2833300000        9.6292780000        5.2236600000
  H        12.4568300000        8.3748650000        5.3765470000
  H        13.9545700000        5.1216870000        5.3618750000
  H        13.4983900000        6.3193550000        6.1400500000
  H         8.5676020000        5.6317490000        3.4138170000
  H         8.9820890000        4.2341830000        4.1765060000
  H        10.0600000000        6.4837870000        4.9265020000
  H        11.4326500000        6.4328450000        5.6659030000
  H        11.3765600000       11.2561900000        4.1983970000
  H        12.4799200000       11.0152400000        3.2263470000
  H        16.2865000000        6.3200000000        4.4550330000
  H        16.1070500000        5.1047060000        3.5406210000
  H         1.7956980000       15.9686200000       10.8559100000
  H        -0.9719355000       14.6940000000       11.2681100000
  H         0.6677713000       11.9665800000       11.1611000000
  H        -2.4272330000       14.7565500000       10.9633900000
  H        -3.0874340000       17.1935900000        9.2884990000
  H         3.6216760000       16.0924300000        8.5801880000
  H        -3.7339850000       15.9752900000        9.3355410000
  H         1.0532200000       14.6400500000       11.1880000000
  H        -0.8840742000       14.2232800000        1.6973600000
  H         0.4434022000       14.9259300000        1.6186460000
  H         0.6207382000       12.9641300000        0.7101737000
  H        -1.0465180000       10.2977500000        9.7438990000
  H         0.1935929000       10.4957200000        8.8768800000
  H        11.7890600000       20.6290400000        4.4152100000
  H         9.3399880000       19.2235200000        5.6386550000
  H        12.7962400000       19.2521100000        9.9213550000
  H        10.2871000000       20.6365600000        4.2183080000
  H        12.6145600000       18.6799300000        0.9201168000
  H        11.8197100000       20.3334900000       10.2974600000
  H        10.0243900000       20.1041500000        6.7144540000
  H        12.1313200000       17.9147300000       11.4328800000
  H        21.5321200000        2.3517030000        0.0168839000
  H         3.5662040000        1.6668910000       11.5240500000
  H       -11.1246400000       21.4544200000        4.4008880000
  H       -10.4231200000       20.1615400000        4.0336330000
  H        23.8445600000        0.1665816000        8.0600460000
  H        -9.5721750000       20.1028600000        6.9269590000
  H        22.6197100000        1.0074430000        9.9679320000
  H        24.0701700000        0.7654157000       10.5014600000
  H        -0.3611252000        3.7649600000        5.5912640000
  H        22.5326000000        1.6604430000        0.9357199000
  H         0.0173737000        2.9309770000        6.7758180000
  H        12.0584800000       21.0135700000        1.9056730000
  H        12.6685400000       20.7436000000        8.1233900000
  H         0.5758147000        1.9951110000        3.9390830000
  H         1.2864000000        0.0954352000       10.2694000000
  H         1.8182840000        1.5037490000       10.0267300000
  H         0.1523923000        0.8331231000        2.1208560000
  H        -0.5610471000        1.0568800000        4.5754330000
  H         2.5391690000        1.2468900000        0.8395396000
  H        -9.1763030000       20.1222000000        5.5096390000
  H         4.1734160000       15.3246500000        9.8001400000
  H        15.8639400000       15.1720400000        7.0359470000
  H        14.8258600000       14.0257400000       11.3857200000
  H        14.2180300000       15.3764500000       10.9561700000
  H        -7.4895620000       14.5207600000        1.0512290000
  H        15.9483300000       15.2872500000        1.1689510000
  H        -6.6399880000       16.3619700000        2.3552520000
  H        -8.7175120000       17.5568400000        5.9336000000
  H        -7.2112110000       17.6763500000        2.9245320000
  H        16.2455500000       13.6599100000        6.9703910000
  H        -9.4494420000       17.4149800000        7.1966360000
  H        12.7205400000       14.8470400000        8.7358700000
  H        13.9409200000       14.3629900000        7.9901810000
  H        12.4109200000       14.5162500000        1.2796870000
  H        12.5376200000       13.8419700000        0.0003493000
  H        -5.8108890000       16.5010400000        4.3915720000
  H        -6.9560650000       15.8867300000        5.3005110000
  H        -4.9008780000       14.5267800000        2.5613530000
  H        -4.2482470000       14.2768000000        3.9248770000
  H        13.5785500000       12.7044800000        9.3790900000
  H        13.7066200000       11.4388900000       10.2755700000
  H        14.3361700000       14.0622800000        2.2553460000
  H        14.1032400000       13.4559300000        3.5855680000
  H        -7.0148880000       16.2061400000        8.1296780000
  H        -6.1367700000       15.6907000000        9.4175150000
  H         3.8119180000        6.5542890000        6.8626830000
  H         3.7596730000        4.0336400000        1.3958950000
  H         4.1317190000        3.7911830000       11.6304800000
  H         3.6178290000        6.3548210000        1.2021370000
  H         3.6208070000        7.9105860000        1.0852300000
  H         1.4247690000        6.9239920000        2.2298450000
  H         1.2005240000        4.9217890000        6.0514390000
  H         0.1597141000        6.5134490000        2.8597910000
  H         5.0492990000        7.1804210000        6.8694370000
  H         1.9336950000        4.6088300000        7.3584890000
  H         5.5617000000        3.4500670000        8.5529410000
  H         5.3278990000        4.9194240000        8.1038280000
  H         6.4421750000        5.0627920000        9.7002340000
  H         5.4490190000        5.4112160000       10.7864000000
  H         0.6748449000        7.6167570000        4.4690060000
  H         1.5244200000        6.8739100000        5.5438720000
  H         1.5941630000        9.2791340000        3.1323790000
  H         2.6854810000       10.2665900000        2.7023630000
  H         8.3707820000        6.3320370000        9.5808820000
  H         7.4961400000        6.2507880000        8.2929280000
  H         5.5205000000        5.3127720000        2.1240000000
  H         5.9744500000        5.7667340000        3.6011710000
  H         1.6521170000        7.2438290000        7.8006150000
  H         2.0873280000        8.0788870000        8.9651420000
  H        16.2832700000        0.7065211000        6.8296140000
  H        19.8620100000        0.7894895000        1.2699060000
  H        19.5711200000        1.5985390000        0.0000000000
  H         5.3287680000       21.3349200000        1.1371630000
  H         3.8719820000       20.6778300000        1.0876750000
  H         6.7567640000       18.7695600000        2.1881590000
  H         7.0217130000       20.1385400000        5.9890260000
  H         5.2848370000       19.3888100000        2.1136370000
  H        17.6668400000        0.0477176000        6.9178760000
  H         7.3416380000       20.9342600000        7.2738360000
  H        17.9655400000        2.2648650000        8.3192440000
  H        19.3868400000        2.9318370000        8.3496350000
  H        17.7996200000        2.3450390000       11.1650600000
  H        18.0820700000        3.2907930000        9.9158830000
  H         5.9323810000       18.3076400000        4.2575490000
  H         4.8880960000       19.3009000000        5.0526080000
  H         2.9156830000       18.4858300000        2.4146370000
  H         3.8779380000       18.1883500000        3.5570400000
  H        15.1364800000        3.0509160000        8.2373860000
  H        15.9998300000        3.7144480000        9.3257600000
  H        16.8757100000        2.3499830000        3.4058990000
  H        17.8351200000        2.1692150000        2.2900450000