# MoS2 By Celeste

8 atoms
1 atom types

  0.000   2.460 xlo xhi
  0.000   2.130 ylo yhi
  0.000  20.000 zlo zhi
  1.230   0.000   0.000 xy xz yz
  Masses

1 12.011

Atoms

1 1   0.000   0.000  10.000
2 1   1.230   0.710  10.000
3 1   1.230   2.130  10.000
4 1   2.460   2.841  10.000
5 1   2.460   0.000  10.000
6 1   3.690   0.710  10.000
7 1   3.690   2.130  10.000
8 1   4.920   2.841  10.000
