<?xml version="1.0" encoding="ISO-8859-1"?>
<modeling>
 <generator>
  <i name="program" type="string">vasp </i>
  <i name="version" type="string">5.4.4.18Apr17-6-g9f103f2a35  </i>
  <i name="subversion" type="string">(build Aug 14 2019 21:35:17) complex            parallel </i>
  <i name="platform" type="string">LinuxIFC </i>
  <i name="date" type="string">2020 11 03 </i>
  <i name="time" type="string">21:03:05 </i>
 </generator>
 <incar>
  <i type="string" name="PREC">normal</i>
  <i type="int" name="IBRION">     8</i>
  <i type="int" name="NFREE">     2</i>
  <i name="ENCUT">    450.00000000</i>
  <i name="POTIM">      0.02000000</i>
  <i type="int" name="ISMEAR">     1</i>
  <i type="int" name="NWRITE">     3</i>
  <i type="logical" name="LWAVE"> F  </i>
  <i type="logical" name="LCHARG"> F  </i>
  <i type="logical" name="LVTOT"> F  </i>
  <i type="logical" name="LELF"> F  </i>
  <i type="logical" name="LASPH"> T  </i>
  <v type="int" name="KPOINT_BSE">    -1     0     0     0</v>
  <i type="string" name="GGA"> MK</i>
  <i name="PARAM1">      0.12340000</i>
  <i name="PARAM2">      1.00000000</i>
  <i type="logical" name="LUSE_VDW"> T  </i>
  <i name="AGGAC">      0.00000000</i>
  <i type="logical" name="LEPSILON"> T  </i>
  <i type="logical" name="LASPH"> T  </i>
 </incar>
 <structure name="primitive_cell" >
  <crystal>
   <varray name="basis" >
    <v>       6.22415293      -3.30245952      -1.90277875 </v>
    <v>       0.00056065       7.04601436       1.90277875 </v>
    <v>       0.01329091      -0.02209988      14.61571708 </v>
   </varray>
   <i name="volume">    641.36264632 </i>
   <varray name="rec_basis" >
    <v>       0.16063393       0.00002665      -0.00014603 </v>
    <v>       0.07532379       0.14187878       0.00014603 </v>
    <v>       0.01110629      -0.01846733       0.06838147 </v>
   </varray>
  </crystal>
  <varray name="positions" >
   <v>       0.44273235       0.04054552      -0.37741286 </v>
   <v>      -0.22356824       0.22356824      -0.40686439 </v>
   <v>       0.27152054       0.23489930      -0.42155725 </v>
   <v>       0.44118467       0.02989174      -0.22318597 </v>
   <v>       0.28157868      -0.28157868      -0.42733536 </v>
   <v>      -0.45872506      -0.22377555      -0.17116406 </v>
   <v>       0.23489930       0.27152054       0.42155725 </v>
   <v>      -0.28157868       0.28157868       0.42733536 </v>
   <v>      -0.04054552      -0.44273235      -0.37741286 </v>
   <v>      -0.38372922       0.38372922      -0.20614242 </v>
   <v>       0.47151127      -0.47151127      -0.35414717 </v>
   <v>      -0.03434109       0.03434109      -0.35341945 </v>
   <v>       0.10383216      -0.10383216      -0.20317900 </v>
   <v>       0.22356824      -0.22356824       0.40686439 </v>
   <v>      -0.02989174      -0.44118467      -0.22318597 </v>
   <v>      -0.44273235      -0.04054552       0.37741286 </v>
   <v>      -0.23489930      -0.27152054      -0.42155725 </v>
   <v>       0.03434109      -0.03434109       0.35341945 </v>
   <v>      -0.47151127       0.47151127       0.35414717 </v>
   <v>       0.22377555       0.45872506      -0.17116406 </v>
   <v>      -0.27152054      -0.23489930       0.42155725 </v>
   <v>      -0.35642116      -0.17154730      -0.01883798 </v>
   <v>       0.04054552       0.44273235       0.37741286 </v>
   <v>      -0.34634683       0.34634683      -0.04382435 </v>
   <v>       0.15651367      -0.15651367      -0.03311345 </v>
   <v>      -0.15651367       0.15651367       0.03311345 </v>
   <v>       0.34634683      -0.34634683       0.04382435 </v>
   <v>       0.17154730       0.35642116      -0.01883798 </v>
   <v>      -0.44118467      -0.02989174       0.22318597 </v>
   <v>       0.35642116       0.17154730       0.01883798 </v>
   <v>      -0.17154730      -0.35642116       0.01883798 </v>
   <v>       0.45872506       0.22377555       0.17116406 </v>
   <v>      -0.10383216       0.10383216       0.20317900 </v>
   <v>       0.38372922      -0.38372922       0.20614242 </v>
   <v>       0.02989174       0.44118467       0.22318597 </v>
   <v>      -0.22377555      -0.45872506       0.17116406 </v>
  </varray>
 </structure>
 <varray name="primitive_index" >
  <v type="int" >        1 </v>
  <v type="int" >        9 </v>
  <v type="int" >       24 </v>
  <v type="int" >        5 </v>
  <v type="int" >       29 </v>
  <v type="int" >       28 </v>
  <v type="int" >       23 </v>
  <v type="int" >       30 </v>
  <v type="int" >        4 </v>
  <v type="int" >       32 </v>
  <v type="int" >       16 </v>
  <v type="int" >       36 </v>
  <v type="int" >       12 </v>
  <v type="int" >       10 </v>
  <v type="int" >        8 </v>
  <v type="int" >        3 </v>
  <v type="int" >       21 </v>
  <v type="int" >       35 </v>
  <v type="int" >       15 </v>
  <v type="int" >       25 </v>
  <v type="int" >       22 </v>
  <v type="int" >       20 </v>
  <v type="int" >        2 </v>
  <v type="int" >       13 </v>
  <v type="int" >       33 </v>
  <v type="int" >       34 </v>
  <v type="int" >       14 </v>
  <v type="int" >       17 </v>
  <v type="int" >        7 </v>
  <v type="int" >       18 </v>
  <v type="int" >       19 </v>
  <v type="int" >       26 </v>
  <v type="int" >       11 </v>
  <v type="int" >       31 </v>
  <v type="int" >        6 </v>
  <v type="int" >       27 </v>
 </varray>
 <kpoints>
  <generation param="Gamma">
   <v type="int" name="divisions">       6        6        6 </v>
   <v name="usershift">      0.00000000       0.00000000       0.00000000 </v>
   <v name="genvec1">      0.16666667       0.00000000       0.00000000 </v>
   <v name="genvec2">     -0.00000000       0.16666667      -0.00000000 </v>
   <v name="genvec3">      0.00000000      -0.00000000       0.16666667 </v>
   <v name="shift">      0.00000000       0.00000000       0.00000000 </v>
  </generation>
  <varray name="kpointlist" >
   <v>       0.00000000       0.00000000       0.00000000 </v>
   <v>       0.16666667       0.00000000      -0.00000000 </v>
   <v>       0.33333333       0.00000000      -0.00000000 </v>
   <v>       0.50000000       0.00000000      -0.00000000 </v>
   <v>       0.16666667       0.16666667      -0.00000000 </v>
   <v>       0.33333333       0.16666667      -0.00000000 </v>
   <v>       0.50000000       0.16666667      -0.00000000 </v>
   <v>      -0.33333333       0.16666667       0.00000000 </v>
   <v>      -0.16666667       0.16666667      -0.00000000 </v>
   <v>       0.33333333       0.33333333      -0.00000000 </v>
   <v>       0.50000000       0.33333333      -0.00000000 </v>
   <v>      -0.33333333       0.33333333       0.00000000 </v>
   <v>       0.50000000       0.50000000      -0.00000000 </v>
   <v>      -0.00000000      -0.00000000       0.16666667 </v>
   <v>       0.16666667       0.00000000       0.16666667 </v>
   <v>       0.33333333      -0.00000000       0.16666667 </v>
   <v>       0.50000000      -0.00000000       0.16666667 </v>
   <v>      -0.33333333      -0.00000000       0.16666667 </v>
   <v>      -0.16666667      -0.00000000       0.16666667 </v>
   <v>       0.16666667       0.16666667       0.16666667 </v>
   <v>       0.33333333       0.16666667       0.16666667 </v>
   <v>       0.50000000       0.16666667       0.16666667 </v>
   <v>      -0.33333333       0.16666667       0.16666667 </v>
   <v>      -0.16666667       0.16666667       0.16666667 </v>
   <v>       0.16666667       0.33333333       0.16666667 </v>
   <v>       0.33333333       0.33333333       0.16666667 </v>
   <v>       0.50000000       0.33333333       0.16666667 </v>
   <v>      -0.33333333       0.33333333       0.16666667 </v>
   <v>       0.16666667       0.50000000       0.16666667 </v>
   <v>       0.33333333       0.50000000       0.16666667 </v>
   <v>       0.50000000       0.50000000       0.16666667 </v>
   <v>       0.16666667      -0.33333333       0.16666667 </v>
   <v>       0.33333333      -0.33333333       0.16666667 </v>
   <v>       0.16666667      -0.16666667       0.16666667 </v>
   <v>      -0.00000000      -0.00000000       0.33333333 </v>
   <v>       0.16666667      -0.00000000       0.33333333 </v>
   <v>       0.33333333      -0.00000000       0.33333333 </v>
   <v>       0.50000000      -0.00000000       0.33333333 </v>
   <v>      -0.33333333      -0.00000000       0.33333333 </v>
   <v>      -0.16666667       0.00000000       0.33333333 </v>
   <v>       0.16666667       0.16666667       0.33333333 </v>
   <v>       0.33333333       0.16666667       0.33333333 </v>
   <v>       0.50000000       0.16666667       0.33333333 </v>
   <v>      -0.33333333       0.16666667       0.33333333 </v>
   <v>      -0.16666667       0.16666667       0.33333333 </v>
   <v>       0.16666667       0.33333333       0.33333333 </v>
   <v>       0.33333333       0.33333333       0.33333333 </v>
   <v>       0.50000000       0.33333333       0.33333333 </v>
   <v>      -0.33333333       0.33333333       0.33333333 </v>
   <v>       0.16666667       0.50000000       0.33333333 </v>
   <v>       0.33333333       0.50000000       0.33333333 </v>
   <v>       0.50000000       0.50000000       0.33333333 </v>
   <v>       0.16666667      -0.33333333       0.33333333 </v>
   <v>       0.33333333      -0.33333333       0.33333333 </v>
   <v>       0.16666667      -0.16666667       0.33333333 </v>
   <v>      -0.00000000       0.00000000       0.50000000 </v>
   <v>       0.16666667       0.00000000       0.50000000 </v>
   <v>       0.33333333      -0.00000000       0.50000000 </v>
   <v>       0.50000000      -0.00000000       0.50000000 </v>
   <v>       0.16666667       0.16666667       0.50000000 </v>
   <v>       0.33333333       0.16666667       0.50000000 </v>
   <v>       0.50000000       0.16666667       0.50000000 </v>
   <v>      -0.33333333       0.16666667       0.50000000 </v>
   <v>      -0.16666667       0.16666667       0.50000000 </v>
   <v>       0.33333333       0.33333333       0.50000000 </v>
   <v>       0.50000000       0.33333333       0.50000000 </v>
   <v>      -0.33333333       0.33333333       0.50000000 </v>
   <v>       0.50000000       0.50000000       0.50000000 </v>
  </varray>
  <varray name="weights" >
   <v>       0.00462963 </v>
   <v>       0.01851852 </v>
   <v>       0.01851852 </v>
   <v>       0.00925926 </v>
   <v>       0.00925926 </v>
   <v>       0.01851852 </v>
   <v>       0.01851852 </v>
   <v>       0.01851852 </v>
   <v>       0.00925926 </v>
   <v>       0.00925926 </v>
   <v>       0.01851852 </v>
   <v>       0.00925926 </v>
   <v>       0.00462963 </v>
   <v>       0.00925926 </v>
   <v>       0.01851852 </v>
   <v>       0.01851852 </v>
   <v>       0.01851852 </v>
   <v>       0.01851852 </v>
   <v>       0.01851852 </v>
   <v>       0.01851852 </v>
   <v>       0.01851852 </v>
   <v>       0.01851852 </v>
   <v>       0.01851852 </v>
   <v>       0.00925926 </v>
   <v>       0.01851852 </v>
   <v>       0.01851852 </v>
   <v>       0.01851852 </v>
   <v>       0.00925926 </v>
   <v>       0.01851852 </v>
   <v>       0.01851852 </v>
   <v>       0.00925926 </v>
   <v>       0.01851852 </v>
   <v>       0.00925926 </v>
   <v>       0.00925926 </v>
   <v>       0.00925926 </v>
   <v>       0.01851852 </v>
   <v>       0.01851852 </v>
   <v>       0.01851852 </v>
   <v>       0.01851852 </v>
   <v>       0.01851852 </v>
   <v>       0.01851852 </v>
   <v>       0.01851852 </v>
   <v>       0.01851852 </v>
   <v>       0.01851852 </v>
   <v>       0.00925926 </v>
   <v>       0.01851852 </v>
   <v>       0.01851852 </v>
   <v>       0.01851852 </v>
   <v>       0.00925926 </v>
   <v>       0.01851852 </v>
   <v>       0.01851852 </v>
   <v>       0.00925926 </v>
   <v>       0.01851852 </v>
   <v>       0.00925926 </v>
   <v>       0.00925926 </v>
   <v>       0.00462963 </v>
   <v>       0.01851852 </v>
   <v>       0.01851852 </v>
   <v>       0.00925926 </v>
   <v>       0.00925926 </v>
   <v>       0.01851852 </v>
   <v>       0.01851852 </v>
   <v>       0.01851852 </v>
   <v>       0.00925926 </v>
   <v>       0.00925926 </v>
   <v>       0.01851852 </v>
   <v>       0.00925926 </v>
   <v>       0.00462963 </v>
  </varray>
 </kpoints>
 <parameters>
  <separator name="general" >
   <i type="string" name="SYSTEM">unknown system</i>
   <i type="logical" name="LCOMPAT"> F  </i>
  </separator>
  <separator name="electronic" >
   <i type="string" name="PREC">normal</i>
   <i name="ENMAX">    450.00000000</i>
   <i name="ENAUG">    586.98000000</i>
   <i name="EDIFF">      0.00000100</i>
   <i type="int" name="IALGO">    38</i>
   <i type="int" name="IWAVPR">    11</i>
   <i type="int" name="NBANDS">   144</i>
   <i name="NELECT">    228.00000000</i>
   <i type="int" name="TURBO">     0</i>
   <i type="int" name="IRESTART">     0</i>
   <i type="int" name="NREBOOT">     0</i>
   <i type="int" name="NMIN">     0</i>
   <i name="EREF">      0.00000000</i>
   <separator name="electronic smearing" >
    <i type="int" name="ISMEAR">     1</i>
    <i name="SIGMA">      0.20000000</i>
    <i name="KSPACING">      0.50000000</i>
    <i type="logical" name="KGAMMA"> T  </i>
   </separator>
   <separator name="electronic projectors" >
    <i type="logical" name="LREAL"> F  </i>
    <v name="ROPT">      0.00000000      0.00000000</v>
    <i type="int" name="LMAXPAW">  -100</i>
    <i type="int" name="LMAXMIX">     2</i>
    <i type="logical" name="NLSPLINE"> F  </i>
   </separator>
   <separator name="electronic startup" >
    <i type="int" name="ISTART">     0</i>
    <i type="int" name="ICHARG">     2</i>
    <i type="int" name="INIWAV">     1</i>
   </separator>
   <separator name="electronic spin" >
    <i type="int" name="ISPIN">     1</i>
    <i type="logical" name="LNONCOLLINEAR"> F  </i>
    <v name="MAGMOM">      1.00000000      1.00000000      1.00000000      1.00000000      1.00000000      1.00000000      1.00000000      1.00000000      1.00000000      1.00000000      1.00000000      1.00000000      1.00000000      1.00000000      1.00000000      1.00000000      1.00000000      1.00000000      1.00000000      1.00000000
      1.00000000      1.00000000      1.00000000      1.00000000      1.00000000      1.00000000      1.00000000      1.00000000      1.00000000      1.00000000      1.00000000      1.00000000      1.00000000      1.00000000      1.00000000      1.00000000</v>
    <i name="NUPDOWN">     -1.00000000</i>
    <i type="logical" name="LSORBIT"> F  </i>
    <v name="SAXIS">      0.00000000      0.00000000      1.00000000</v>
    <i type="logical" name="LSPIRAL"> F  </i>
    <v name="QSPIRAL">      0.00000000      0.00000000      0.00000000</v>
    <i type="logical" name="LZEROZ"> F  </i>
   </separator>
   <separator name="electronic exchange-correlation" >
    <i type="logical" name="LASPH"> T  </i>
    <i type="logical" name="LMETAGGA"> F  </i>
   </separator>
   <separator name="electronic convergence" >
    <i type="int" name="NELM">    60</i>
    <i type="int" name="NELMDL">     0</i>
    <i type="int" name="NELMIN">     2</i>
    <i name="ENINI">    450.00000000</i>
    <separator name="electronic convergence detail" >
     <i type="logical" name="LDIAG"> T  </i>
     <i type="logical" name="LSUBROT"> F  </i>
     <i name="WEIMIN">      0.00100000</i>
     <i name="EBREAK">      0.00000000</i>
     <i name="DEPER">      0.30000000</i>
     <i type="int" name="NRMM">     4</i>
     <i name="TIME">      0.40000000</i>
    </separator>
   </separator>
   <separator name="electronic mixer" >
    <i name="AMIX">      0.40000000</i>
    <i name="BMIX">      1.00000000</i>
    <i name="AMIN">      0.10000000</i>
    <i name="AMIX_MAG">      1.60000000</i>
    <i name="BMIX_MAG">      1.00000000</i>
    <separator name="electronic mixer details" >
     <i type="int" name="IMIX">     4</i>
     <i type="logical" name="MIXFIRST"> F  </i>
     <i type="int" name="MAXMIX">   -45</i>
     <i name="WC">    100.00000000</i>
     <i type="int" name="INIMIX">     1</i>
     <i type="int" name="MIXPRE">     1</i>
     <i type="int" name="MREMOVE">     5</i>
    </separator>
   </separator>
   <separator name="electronic dipolcorrection" >
    <i type="logical" name="LDIPOL"> F  </i>
    <i type="logical" name="LMONO"> F  </i>
    <i type="int" name="IDIPOL">     0</i>
    <i name="EPSILON">      1.00000000</i>
    <v name="DIPOL">   -100.00000000   -100.00000000   -100.00000000</v>
    <i name="EFIELD">      0.00000000</i>
   </separator>
  </separator>
  <separator name="grids" >
   <i type="int" name="NGX">    40</i>
   <i type="int" name="NGY">    40</i>
   <i type="int" name="NGZ">    80</i>
   <i type="int" name="NGXF">    80</i>
   <i type="int" name="NGYF">    80</i>
   <i type="int" name="NGZF">   160</i>
   <i type="logical" name="ADDGRID"> F  </i>
  </separator>
  <separator name="ionic" >
   <i type="int" name="NSW">     1</i>
   <i type="int" name="IBRION">     8</i>
   <i type="int" name="MDALGO">     0</i>
   <i type="int" name="ISIF">     2</i>
   <i name="PSTRESS">      0.00000000</i>
   <i name="EDIFFG">      0.00001000</i>
   <i type="int" name="NFREE">     2</i>
   <i name="POTIM">      0.02000000</i>
   <i name="SMASS">     -3.00000000</i>
   <i name="SCALEE">      1.00000000</i>
  </separator>
  <separator name="ionic md" >
   <i name="TEBEG">      0.00010000</i>
   <i name="TEEND">      0.00010000</i>
   <i type="int" name="NBLOCK">     1</i>
   <i type="int" name="KBLOCK">     1</i>
   <i type="int" name="NPACO">   256</i>
   <i name="APACO">     16.00000000</i>
  </separator>
  <separator name="symmetry" >
   <i type="int" name="ISYM">     2</i>
   <i name="SYMPREC">      0.00001000</i>
  </separator>
  <separator name="dos" >
   <i type="int" name="LORBIT">     0</i>
   <v name="RWIGS">     -1.00000000     -1.00000000</v>
   <i type="int" name="NEDOS">   301</i>
   <i name="EMIN">     10.00000000</i>
   <i name="EMAX">    -10.00000000</i>
   <i name="EFERMI">      0.00000000</i>
  </separator>
  <separator name="writing" >
   <i type="int" name="NWRITE">     3</i>
   <i type="logical" name="LWAVE"> F  </i>
   <i type="logical" name="LDOWNSAMPLE"> F  </i>
   <i type="logical" name="LCHARG"> F  </i>
   <i type="logical" name="LPARD"> F  </i>
   <i type="logical" name="LVTOT"> F  </i>
   <i type="logical" name="LVHAR"> F  </i>
   <i type="logical" name="LELF"> F  </i>
   <i type="logical" name="LOPTICS"> F  </i>
   <v name="STM">      0.00000000      0.00000000      0.00000000      0.00000000      0.00000000      0.00000000      0.00000000</v>
  </separator>
  <separator name="performance" >
   <i type="int" name="NPAR">    48</i>
   <i type="int" name="NSIM">     4</i>
   <i type="int" name="NBLK">    -1</i>
   <i type="logical" name="LPLANE"> T  </i>
   <i type="logical" name="LSCALAPACK"> T  </i>
   <i type="logical" name="LSCAAWARE"> F  </i>
   <i type="logical" name="LSCALU"> F  </i>
   <i type="logical" name="LASYNC"> F  </i>
   <i type="logical" name="LORBITALREAL"> F  </i>
  </separator>
  <separator name="miscellaneous" >
   <i type="int" name="IDIOT">     3</i>
   <i type="int" name="ISPECIAL">     0</i>
   <i type="logical" name="LMUSIC"> F  </i>
   <v name="POMASS">     30.97400000     63.54600000</v>
   <v name="DARWINR">      0.00000000      0.00000000</v>
   <v name="DARWINV">      1.00000000      1.00000000</v>
   <i type="logical" name="LCORR"> T  </i>
  </separator>
  <i type="logical" name="GGA_COMPAT"> T  </i>
  <i type="logical" name="LBERRY"> F  </i>
  <i type="int" name="ICORELEVEL">     0</i>
  <i type="logical" name="LDAU"> F  </i>
  <i type="int" name="I_CONSTRAINED_M">     0</i>
  <separator name="electronic exchange-correlation" >
   <i type="string" name="GGA">MK</i>
   <i type="int" name="VOSKOWN">     0</i>
   <i type="logical" name="LHFCALC"> F  </i>
   <i type="string" name="PRECFOCK"></i>
   <i type="logical" name="LSYMGRAD"> F  </i>
   <i type="logical" name="LHFONE"> F  </i>
   <i type="logical" name="LRHFCALC"> F  </i>
   <i type="logical" name="LTHOMAS"> F  </i>
   <i type="logical" name="LMODELHF"> F  </i>
   <i name="ENCUT4O">     -1.00000000</i>
   <i type="int" name="EXXOEP">     0</i>
   <i type="int" name="FOURORBIT">     0</i>
   <i name="AEXX">      0.00000000</i>
   <i name="HFALPHA">      0.00000000</i>
   <i name="MCALPHA">      0.00000000</i>
   <i name="ALDAX">      1.00000000</i>
   <i name="AGGAX">      1.00000000</i>
   <i name="ALDAC">      1.00000000</i>
   <i name="AGGAC">      0.00000000</i>
   <i type="int" name="NKREDX">     1</i>
   <i type="int" name="NKREDY">     1</i>
   <i type="int" name="NKREDZ">     1</i>
   <i type="logical" name="SHIFTRED"> F  </i>
   <i type="logical" name="ODDONLY"> F  </i>
   <i type="logical" name="EVENONLY"> F  </i>
   <i type="int" name="LMAXFOCK">     0</i>
   <i type="int" name="NMAXFOCKAE">     0</i>
   <i type="logical" name="LFOCKAEDFT"> F  </i>
   <i name="HFSCREEN">      0.00000000</i>
   <i name="HFSCREENC">      0.00000000</i>
   <i type="int" name="NBANDSGWLOW">     0</i>
  </separator>
  <separator name="vdW DFT" >
   <i type="logical" name="LUSE_VDW"> T  </i>
   <i name="Zab_VDW">     -0.84910000</i>
   <i name="PARAM1">      0.12340000</i>
   <i name="PARAM2">      1.00000000</i>
   <i name="PARAM3">      0.00000000</i>
  </separator>
  <separator name="model GW" >
   <i type="int" name="MODEL_GW">     0</i>
   <i name="MODEL_EPS0">     10.68937744</i>
   <i name="MODEL_ALPHA">      1.00000000</i>
  </separator>
  <separator name="linear response parameters" >
   <i type="logical" name="LEPSILON"> T  </i>
   <i type="logical" name="LRPA"> F  </i>
   <i type="logical" name="LNABLA"> F  </i>
   <i type="logical" name="LVEL"> F  </i>
   <i type="int" name="KINTER">     0</i>
   <i name="CSHIFT">      0.10000000</i>
   <i name="OMEGAMAX">     -1.00000000</i>
   <i name="DEG_THRESHOLD">      0.00200000</i>
   <i name="RTIME">     -0.10000000</i>
   <i name="WPLASMAI">      0.00000000</i>
   <v name="DFIELD">      0.00000000      0.00000000      0.00000000</v>
   <v name="WPLASMA">      0.00000000      0.00000000      0.00000000      0.00000000      0.00000000      0.00000000      0.00000000      0.00000000      0.00000000</v>
  </separator>
  <separator name="orbital magnetization" >
   <i type="logical" name="NUCIND"> F  </i>
   <v name="MAGPOS">      0.00000000      0.00000000      0.00000000</v>
   <i type="logical" name="LNICSALL"> T  </i>
   <i type="logical" name="ORBITALMAG"> F  </i>
   <i type="logical" name="LMAGBLOCH"> F  </i>
   <i type="logical" name="LCHIMAG"> F  </i>
   <i type="logical" name="LGAUGE"> T  </i>
   <i type="int" name="MAGATOM">     0</i>
   <v name="MAGDIPOL">      0.00000000      0.00000000      0.00000000</v>
   <v name="AVECCONST">      0.00000000      0.00000000      0.00000000</v>
  </separator>
  <separator name="response functions" >
   <i type="logical" name="LADDER"> F  </i>
   <i type="logical" name="LRPAFORCE"> F  </i>
   <i type="logical" name="LFXC"> F  </i>
   <i type="logical" name="LHARTREE"> T  </i>
   <i type="int" name="IBSE">     0</i>
   <v type="int" name="KPOINT">    -1     0     0     0</v>
   <i type="logical" name="LTCTE"> F  </i>
   <i type="logical" name="LTETE"> F  </i>
   <i type="logical" name="LTRIPLET"> F  </i>
   <i type="logical" name="LFXCEPS"> F  </i>
   <i type="logical" name="LFXHEG"> F  </i>
   <i type="int" name="NATURALO">     2</i>
   <i type="logical" name="L2ORDER"> F  </i>
   <i type="logical" name="LMP2LT"> F  </i>
   <i type="logical" name="LUSEW"> F  </i>
   <i name="ENCUTGW">     -2.00000000</i>
   <i name="ENCUTGWSOFT">     -2.00000000</i>
   <i name="ENCUTLF">     -1.00000000</i>
   <i type="int" name="LMAXMP2">    -1</i>
   <i name="SCISSOR">      0.00000000</i>
   <i type="int" name="NOMEGA">     0</i>
   <i type="int" name="NOMEGAR">     0</i>
   <i type="int" name="NBANDSGW">    -1</i>
   <i type="int" name="NBANDSO">    -1</i>
   <i type="int" name="NBANDSV">    -1</i>
   <i type="int" name="NELM">     1</i>
   <i type="int" name="NELMHF">     1</i>
   <i type="int" name="DIM">     3</i>
   <i type="int" name="ANTIRES">     0</i>
   <i name="OMEGAMAX">    -30.00000000</i>
   <i name="OMEGAMIN">    -30.00000000</i>
   <i name="OMEGATL">   -200.00000000</i>
   <i type="int" name="OMEGAGRID">   140</i>
   <i name="CSHIFT">     -0.10000000</i>
   <i type="logical" name="SELFENERGY"> F  </i>
   <i type="logical" name="LSPECTRAL"> F  </i>
   <i type="logical" name="LSPECTRALGW"> F  </i>
   <i type="logical" name="LSINGLES"> F  </i>
   <i type="logical" name="LFERMIGW"> F  </i>
   <i type="logical" name="ODDONLYGW"> F  </i>
   <i type="logical" name="EVENONLYGW"> F  </i>
   <i type="int" name="NKREDLFX">     1</i>
   <i type="int" name="NKREDLFY">     1</i>
   <i type="int" name="NKREDLFZ">     1</i>
   <i type="int" name="MAXMEM">  2800</i>
   <i type="int" name="TELESCOPE">     0</i>
   <i type="int" name="TAUPAR">     1</i>
   <i type="int" name="OMEGAPAR">    -1</i>
   <i name="LAMBDA">      1.00000000</i>
  </separator>
  <separator name="External order field" >
   <i name="OFIELD_KAPPA">      0.00000000</i>
   <v name="OFIELD_K">      0.00000000      0.00000000      0.00000000</v>
   <i name="OFIELD_Q6_NEAR">      0.00000000</i>
   <i name="OFIELD_Q6_FAR">      0.00000000</i>
   <i name="OFIELD_A">      0.00000000</i>
  </separator>
 </parameters>
 <atominfo>
  <atoms>      36 </atoms>
  <types>       2 </types>
  <array name="atoms" >
   <dimension dim="1">ion</dimension>
   <field type="string">element</field>
   <field type="int">atomtype</field>
   <set>
    <rc><c>P </c><c>   1</c></rc>
    <rc><c>P </c><c>   1</c></rc>
    <rc><c>P </c><c>   1</c></rc>
    <rc><c>P </c><c>   1</c></rc>
    <rc><c>P </c><c>   1</c></rc>
    <rc><c>P </c><c>   1</c></rc>
    <rc><c>P </c><c>   1</c></rc>
    <rc><c>P </c><c>   1</c></rc>
    <rc><c>P </c><c>   1</c></rc>
    <rc><c>P </c><c>   1</c></rc>
    <rc><c>P </c><c>   1</c></rc>
    <rc><c>P </c><c>   1</c></rc>
    <rc><c>P </c><c>   1</c></rc>
    <rc><c>P </c><c>   1</c></rc>
    <rc><c>P </c><c>   1</c></rc>
    <rc><c>P </c><c>   1</c></rc>
    <rc><c>P </c><c>   1</c></rc>
    <rc><c>P </c><c>   1</c></rc>
    <rc><c>P </c><c>   1</c></rc>
    <rc><c>P </c><c>   1</c></rc>
    <rc><c>P </c><c>   1</c></rc>
    <rc><c>P </c><c>   1</c></rc>
    <rc><c>P </c><c>   1</c></rc>
    <rc><c>P </c><c>   1</c></rc>
    <rc><c>P </c><c>   1</c></rc>
    <rc><c>P </c><c>   1</c></rc>
    <rc><c>P </c><c>   1</c></rc>
    <rc><c>P </c><c>   1</c></rc>
    <rc><c>Cu</c><c>   2</c></rc>
    <rc><c>Cu</c><c>   2</c></rc>
    <rc><c>Cu</c><c>   2</c></rc>
    <rc><c>Cu</c><c>   2</c></rc>
    <rc><c>Cu</c><c>   2</c></rc>
    <rc><c>Cu</c><c>   2</c></rc>
    <rc><c>Cu</c><c>   2</c></rc>
    <rc><c>Cu</c><c>   2</c></rc>
   </set>
  </array>
  <array name="atomtypes" >
   <dimension dim="1">type</dimension>
   <field type="int">atomspertype</field>
   <field type="string">element</field>
   <field>mass</field>
   <field>valence</field>
   <field type="string">pseudopotential</field>
   <set>
    <rc><c>  28</c><c>P </c><c>     30.97400000</c><c>      5.00000000</c><c>  PAW_PBE P 06Sep2000                   </c></rc>
    <rc><c>   8</c><c>Cu</c><c>     63.54600000</c><c>     11.00000000</c><c>  PAW_PBE Cu 22Jun2005                  </c></rc>
   </set>
  </array>
 </atominfo>
 <structure name="initialpos" >
  <crystal>
   <varray name="basis" >
    <v>       6.22415293      -3.30245952      -1.90277875 </v>
    <v>       0.00056065       7.04601436       1.90277875 </v>
    <v>       0.01329091      -0.02209988      14.61571708 </v>
   </varray>
   <i name="volume">    641.36264632 </i>
   <varray name="rec_basis" >
    <v>       0.16063393       0.00002665      -0.00014603 </v>
    <v>       0.07532379       0.14187878       0.00014603 </v>
    <v>       0.01110629      -0.01846733       0.06838147 </v>
   </varray>
  </crystal>
  <varray name="positions" >
   <v>       0.44273235       0.04054552       0.62258714 </v>
   <v>       0.04054552       0.44273235       0.37741286 </v>
   <v>       0.55726765       0.95945448       0.37741286 </v>
   <v>       0.95945448       0.55726765       0.62258714 </v>
   <v>       0.44118467       0.02989174       0.77681403 </v>
   <v>       0.02989174       0.44118467       0.22318597 </v>
   <v>       0.55881533       0.97010826       0.22318597 </v>
   <v>       0.97010826       0.55881533       0.77681403 </v>
   <v>       0.77643176       0.22356824       0.59313561 </v>
   <v>       0.22356824       0.77643176       0.40686439 </v>
   <v>       0.89616784       0.10383216       0.20317900 </v>
   <v>       0.10383216       0.89616784       0.79682100 </v>
   <v>       0.65365317       0.34634683       0.95617565 </v>
   <v>       0.34634683       0.65365317       0.04382435 </v>
   <v>       0.52848873       0.47151127       0.35414717 </v>
   <v>       0.47151127       0.52848873       0.64585283 </v>
   <v>       0.17154730       0.35642116       0.98116202 </v>
   <v>       0.35642116       0.17154730       0.01883798 </v>
   <v>       0.82845270       0.64357884       0.01883798 </v>
   <v>       0.64357884       0.82845270       0.98116202 </v>
   <v>       0.76510070       0.72847946       0.57844275 </v>
   <v>       0.72847946       0.76510070       0.42155725 </v>
   <v>       0.23489930       0.27152054       0.42155725 </v>
   <v>       0.27152054       0.23489930       0.57844275 </v>
   <v>       0.22377555       0.45872506       0.82883594 </v>
   <v>       0.45872506       0.22377555       0.17116406 </v>
   <v>       0.77622445       0.54127494       0.17116406 </v>
   <v>       0.54127494       0.77622445       0.82883594 </v>
   <v>       0.28157868       0.71842132       0.57266464 </v>
   <v>       0.71842132       0.28157868       0.42733536 </v>
   <v>       0.38372922       0.61627078       0.20614242 </v>
   <v>       0.61627078       0.38372922       0.79385758 </v>
   <v>       0.15651367       0.84348633       0.96688655 </v>
   <v>       0.84348633       0.15651367       0.03311345 </v>
   <v>       0.03434109       0.96565891       0.35341945 </v>
   <v>       0.96565891       0.03434109       0.64658055 </v>
  </varray>
 </structure>
 <calculation>
  <scstep>
   <time name="dav">   20.92   20.95</time>
   <time name="total">   22.30   22.40</time>
   <energy>
    <i name="alphaZ">    388.67174106 </i>
    <i name="ewald"> -11442.86662501 </i>
    <i name="hartreedc">  -5371.47477854 </i>
    <i name="XCdc">    457.55448023 </i>
    <i name="pawpsdc">  13764.35742654 </i>
    <i name="pawaedc"> -14356.24681082 </i>
    <i name="eentropy">      0.00213143 </i>
    <i name="bandstr">   1976.95241635 </i>
    <i name="atom">  16113.70514952 </i>
    <i name="e_fr_energy">   1530.65513077 </i>
    <i name="e_wo_entrp">   1530.65299934 </i>
    <i name="e_0_energy">   1530.65442029 </i>
   </energy>
  </scstep>
  <scstep>
   <time name="dav">   21.37   21.40</time>
   <time name="total">   21.38   21.41</time>
   <energy>
    <i name="e_fr_energy">     25.35024373 </i>
    <i name="e_wo_entrp">     25.33622478 </i>
    <i name="e_0_energy">     25.34557075 </i>
   </energy>
  </scstep>
  <scstep>
   <time name="dav">   30.70   30.73</time>
   <time name="total">   30.71   30.73</time>
   <energy>
    <i name="e_fr_energy">   -133.74057398 </i>
    <i name="e_wo_entrp">   -133.76585834 </i>
    <i name="e_0_energy">   -133.74900210 </i>
   </energy>
  </scstep>
  <scstep>
   <time name="dav">   26.25   26.27</time>
   <time name="total">   26.26   26.27</time>
   <energy>
    <i name="e_fr_energy">   -138.92445484 </i>
    <i name="e_wo_entrp">   -138.95231102 </i>
    <i name="e_0_energy">   -138.93374024 </i>
   </energy>
  </scstep>
  <scstep>
   <time name="dav">   32.90   32.93</time>
   <time name="total">   33.31   33.34</time>
   <energy>
    <i name="e_fr_energy">   -139.21121058 </i>
    <i name="e_wo_entrp">   -139.23947266 </i>
    <i name="e_0_energy">   -139.22063128 </i>
   </energy>
  </scstep>
  <scstep>
   <time name="dav">   24.71   24.73</time>
   <time name="total">   26.11   26.13</time>
   <energy>
    <i name="e_fr_energy">   -153.60487235 </i>
    <i name="e_wo_entrp">   -153.61539370 </i>
    <i name="e_0_energy">   -153.60837947 </i>
   </energy>
  </scstep>
  <scstep>
   <time name="dav">   27.38   27.41</time>
   <time name="total">   28.79   28.82</time>
   <energy>
    <i name="e_fr_energy">   -126.66546452 </i>
    <i name="e_wo_entrp">   -126.67766884 </i>
    <i name="e_0_energy">   -126.66953263 </i>
   </energy>
  </scstep>
  <scstep>
   <time name="dav">   33.58   33.62</time>
   <time name="total">   34.97   35.01</time>
   <energy>
    <i name="e_fr_energy">   -133.48295874 </i>
    <i name="e_wo_entrp">   -133.51004313 </i>
    <i name="e_0_energy">   -133.49198687 </i>
   </energy>
  </scstep>
  <scstep>
   <time name="dav">   29.55   29.59</time>
   <time name="total">   30.96   31.00</time>
   <energy>
    <i name="e_fr_energy">   -126.86637152 </i>
    <i name="e_wo_entrp">   -126.87940059 </i>
    <i name="e_0_energy">   -126.87071455 </i>
   </energy>
  </scstep>
  <scstep>
   <time name="dav">   33.56   33.61</time>
   <time name="total">   34.95   35.00</time>
   <energy>
    <i name="e_fr_energy">   -126.51067922 </i>
    <i name="e_wo_entrp">   -126.52313579 </i>
    <i name="e_0_energy">   -126.51483141 </i>
   </energy>
  </scstep>
  <scstep>
   <time name="dav">   31.46   31.49</time>
   <time name="total">   32.87   32.90</time>
   <energy>
    <i name="e_fr_energy">   -126.54101693 </i>
    <i name="e_wo_entrp">   -126.55353582 </i>
    <i name="e_0_energy">   -126.54518989 </i>
   </energy>
  </scstep>
  <scstep>
   <time name="dav">   33.57   33.61</time>
   <time name="total">   34.99   35.04</time>
   <energy>
    <i name="e_fr_energy">   -126.53409414 </i>
    <i name="e_wo_entrp">   -126.54660600 </i>
    <i name="e_0_energy">   -126.53826476 </i>
   </energy>
  </scstep>
  <scstep>
   <time name="dav">   33.10   33.14</time>
   <time name="total">   34.49   34.53</time>
   <energy>
    <i name="e_fr_energy">   -126.50516744 </i>
    <i name="e_wo_entrp">   -126.51760290 </i>
    <i name="e_0_energy">   -126.50931259 </i>
   </energy>
  </scstep>
  <scstep>
   <time name="dav">   33.56   33.61</time>
   <time name="total">   34.94   34.99</time>
   <energy>
    <i name="e_fr_energy">   -126.52209684 </i>
    <i name="e_wo_entrp">   -126.53448425 </i>
    <i name="e_0_energy">   -126.52622598 </i>
   </energy>
  </scstep>
  <scstep>
   <time name="dav">   32.95   32.99</time>
   <time name="total">   34.34   34.39</time>
   <energy>
    <i name="e_fr_energy">   -126.51279352 </i>
    <i name="e_wo_entrp">   -126.52514906 </i>
    <i name="e_0_energy">   -126.51691203 </i>
   </energy>
  </scstep>
  <scstep>
   <time name="dav">   33.55   33.61</time>
   <time name="total">   34.95   35.01</time>
   <energy>
    <i name="e_fr_energy">   -126.50599368 </i>
    <i name="e_wo_entrp">   -126.51842622 </i>
    <i name="e_0_energy">   -126.51013786 </i>
   </energy>
  </scstep>
  <scstep>
   <time name="dav">   33.10   33.16</time>
   <time name="total">   34.50   34.57</time>
   <energy>
    <i name="e_fr_energy">   -126.50436142 </i>
    <i name="e_wo_entrp">   -126.51673464 </i>
    <i name="e_0_energy">   -126.50848583 </i>
   </energy>
  </scstep>
  <scstep>
   <time name="dav">   33.49   33.53</time>
   <time name="total">   34.90   34.95</time>
   <energy>
    <i name="e_fr_energy">   -126.50455851 </i>
    <i name="e_wo_entrp">   -126.51697153 </i>
    <i name="e_0_energy">   -126.50869618 </i>
   </energy>
  </scstep>
  <scstep>
   <time name="dav">   33.63   33.68</time>
   <time name="total">   35.03   35.07</time>
   <energy>
    <i name="e_fr_energy">   -126.50447869 </i>
    <i name="e_wo_entrp">   -126.51689191 </i>
    <i name="e_0_energy">   -126.50861643 </i>
   </energy>
  </scstep>
  <scstep>
   <time name="dav">   33.46   33.51</time>
   <time name="total">   34.88   34.93</time>
   <energy>
    <i name="e_fr_energy">   -126.50441381 </i>
    <i name="e_wo_entrp">   -126.51682331 </i>
    <i name="e_0_energy">   -126.50855031 </i>
   </energy>
  </scstep>
  <scstep>
   <time name="dav">   33.07   33.11</time>
   <time name="total">   34.45   34.50</time>
   <energy>
    <i name="e_fr_energy">   -126.50438330 </i>
    <i name="e_wo_entrp">   -126.51680508 </i>
    <i name="e_0_energy">   -126.50852389 </i>
   </energy>
  </scstep>
  <scstep>
   <time name="dav">   33.53   33.58</time>
   <time name="total">   34.94   35.00</time>
   <energy>
    <i name="e_fr_energy">   -126.50438866 </i>
    <i name="e_wo_entrp">   -126.51680932 </i>
    <i name="e_0_energy">   -126.50852888 </i>
   </energy>
  </scstep>
  <scstep>
   <time name="dav">   32.89   32.91</time>
   <time name="total">   34.28   34.30</time>
   <energy>
    <i name="e_fr_energy">   -126.50438495 </i>
    <i name="e_wo_entrp">   -126.51680624 </i>
    <i name="e_0_energy">   -126.50852538 </i>
   </energy>
  </scstep>
  <scstep>
   <time name="dav">   22.69   22.71</time>
   <time name="total">   24.08   24.10</time>
   <energy>
    <i name="e_fr_energy">   -126.50438287 </i>
    <i name="e_wo_entrp">   -126.51680502 </i>
    <i name="e_0_energy">   -126.50852359 </i>
   </energy>
  </scstep>
  <scstep>
   <time name="dav">   32.77   32.81</time>
   <time name="total">   34.17   34.21</time>
   <energy>
    <i name="e_fr_energy">   -126.50438045 </i>
    <i name="e_wo_entrp">   -126.51680394 </i>
    <i name="e_0_energy">   -126.50852161 </i>
   </energy>
  </scstep>
  <scstep>
   <time name="dav">   22.57   22.59</time>
   <time name="total">   23.54   23.57</time>
   <energy>
    <i name="alphaZ">    388.67174106 </i>
    <i name="ewald"> -11442.86662501 </i>
    <i name="hartreedc">  -5235.94492427 </i>
    <i name="XCdc">    456.34820853 </i>
    <i name="pawpsdc">  25557.90987418 </i>
    <i name="pawaedc"> -26171.34433598 </i>
    <i name="eentropy">      0.01242278 </i>
    <i name="bandstr">    207.00410883 </i>
    <i name="atom">  16113.70514952 </i>
    <i name="e_fr_energy">   -126.50438036 </i>
    <i name="e_wo_entrp">   -126.51680314 </i>
    <i name="e_0_energy">   -126.50852129 </i>
   </energy>
  </scstep>
  <structure>
   <crystal>
    <varray name="basis" >
     <v>       6.22415293      -3.30245952      -1.90277875 </v>
     <v>       0.00056065       7.04601436       1.90277875 </v>
     <v>       0.01329091      -0.02209988      14.61571708 </v>
    </varray>
    <i name="volume">    641.36264632 </i>
    <varray name="rec_basis" >
     <v>       0.16063393       0.00002665      -0.00014603 </v>
     <v>       0.07532379       0.14187878       0.00014603 </v>
     <v>       0.01110629      -0.01846733       0.06838147 </v>
    </varray>
   </crystal>
   <varray name="positions" >
    <v>       0.44273235       0.04054552       0.62258714 </v>
    <v>       0.04054552       0.44273235       0.37741286 </v>
    <v>       0.55726765       0.95945448       0.37741286 </v>
    <v>       0.95945448       0.55726765       0.62258714 </v>
    <v>       0.44118467       0.02989174       0.77681403 </v>
    <v>       0.02989174       0.44118467       0.22318597 </v>
    <v>       0.55881533       0.97010826       0.22318597 </v>
    <v>       0.97010826       0.55881533       0.77681403 </v>
    <v>       0.77643176       0.22356824       0.59313561 </v>
    <v>       0.22356824       0.77643176       0.40686439 </v>
    <v>       0.89616784       0.10383216       0.20317900 </v>
    <v>       0.10383216       0.89616784       0.79682100 </v>
    <v>       0.65365317       0.34634683       0.95617565 </v>
    <v>       0.34634683       0.65365317       0.04382435 </v>
    <v>       0.52848873       0.47151127       0.35414717 </v>
    <v>       0.47151127       0.52848873       0.64585283 </v>
    <v>       0.17154730       0.35642116       0.98116202 </v>
    <v>       0.35642116       0.17154730       0.01883798 </v>
    <v>       0.82845270       0.64357884       0.01883798 </v>
    <v>       0.64357884       0.82845270       0.98116202 </v>
    <v>       0.76510070       0.72847946       0.57844275 </v>
    <v>       0.72847946       0.76510070       0.42155725 </v>
    <v>       0.23489930       0.27152054       0.42155725 </v>
    <v>       0.27152054       0.23489930       0.57844275 </v>
    <v>       0.22377555       0.45872506       0.82883594 </v>
    <v>       0.45872506       0.22377555       0.17116406 </v>
    <v>       0.77622445       0.54127494       0.17116406 </v>
    <v>       0.54127494       0.77622445       0.82883594 </v>
    <v>       0.28157868       0.71842132       0.57266464 </v>
    <v>       0.71842132       0.28157868       0.42733536 </v>
    <v>       0.38372922       0.61627078       0.20614242 </v>
    <v>       0.61627078       0.38372922       0.79385758 </v>
    <v>       0.15651367       0.84348633       0.96688655 </v>
    <v>       0.84348633       0.15651367       0.03311345 </v>
    <v>       0.03434109       0.96565891       0.35341945 </v>
    <v>       0.96565891       0.03434109       0.64658055 </v>
   </varray>
  </structure>
  <varray name="forces" >
   <v>      -0.00776896      -0.01261472      -0.00555536 </v>
   <v>      -0.01478470      -0.00094909       0.00555536 </v>
   <v>       0.00776896       0.01261472       0.00555536 </v>
   <v>       0.01478470       0.00094909      -0.00555536 </v>
   <v>      -0.02240750      -0.02299413       0.00898078 </v>
   <v>      -0.03081514      -0.00901407      -0.00898078 </v>
   <v>       0.02240750       0.02299413      -0.00898078 </v>
   <v>       0.03081514       0.00901407       0.00898078 </v>
   <v>      -0.00518461       0.00862087      -0.00876468 </v>
   <v>       0.00518461      -0.00862087       0.00876468 </v>
   <v>      -0.00990787       0.01647463      -0.02292137 </v>
   <v>       0.00990787      -0.01647463       0.02292137 </v>
   <v>       0.01368533      -0.02275571       0.04187642 </v>
   <v>      -0.01368533       0.02275571      -0.04187642 </v>
   <v>       0.01155784      -0.01921817      -0.00604737 </v>
   <v>      -0.01155784       0.01921817       0.00604737 </v>
   <v>      -0.01811085       0.00656379      -0.03598025 </v>
   <v>      -0.00269188      -0.01907459       0.03598025 </v>
   <v>       0.01811085      -0.00656379       0.03598025 </v>
   <v>       0.00269188       0.01907459      -0.03598025 </v>
   <v>      -0.00868420       0.00971612       0.02704247 </v>
   <v>       0.00451156      -0.01222555      -0.02704247 </v>
   <v>       0.00868420      -0.00971612      -0.02704247 </v>
   <v>      -0.00451156       0.01222555       0.02704247 </v>
   <v>       0.02770955      -0.00549980      -0.02860465 </v>
   <v>       0.00813130       0.02705455       0.02860465 </v>
   <v>      -0.02770955       0.00549980       0.02860465 </v>
   <v>      -0.00813130      -0.02705455      -0.02860465 </v>
   <v>       0.00909661      -0.01512567       0.00133708 </v>
   <v>      -0.00909661       0.01512567      -0.00133708 </v>
   <v>       0.01762524      -0.02930692      -0.00104213 </v>
   <v>      -0.01762524       0.02930692       0.00104213 </v>
   <v>       0.00172976      -0.00287621      -0.00911521 </v>
   <v>      -0.00172976       0.00287621       0.00911521 </v>
   <v>       0.00584816      -0.00972421      -0.03551504 </v>
   <v>      -0.00584816       0.00972421       0.03551504 </v>
  </varray>
  <varray name="stress" >
   <v>      -0.04575876      -0.12385481       0.49553671 </v>
   <v>      -0.12385481       0.08569820      -0.82396925 </v>
   <v>       0.49553579      -0.82396773       1.69819837 </v>
  </varray>
  <energy>
   <i name="e_fr_energy">   -126.50438036 </i>
   <i name="e_wo_entrp">   -126.50852129 </i>
   <i name="e_0_energy">      0.01242278 </i>
  </energy>
  <scstep>
   <time name="total">   26.39   26.44</time>
   <energy>
    <i name="e_fr_energy">   -828.85777054 </i>
    <i name="e_wo_entrp">   -828.85777054 </i>
    <i name="e_0_energy">   -828.85777054 </i>
   </energy>
  </scstep>
  <scstep>
   <time name="total">   24.34   24.37</time>
   <energy>
    <i name="e_fr_energy">   -676.08270026 </i>
    <i name="e_wo_entrp">   -676.08270026 </i>
    <i name="e_0_energy">   -676.08270026 </i>
   </energy>
  </scstep>
  <scstep>
   <time name="total">   24.66   24.70</time>
   <energy>
    <i name="e_fr_energy">   -709.87318869 </i>
    <i name="e_wo_entrp">   -709.87318869 </i>
    <i name="e_0_energy">   -709.87318869 </i>
   </energy>
  </scstep>
  <scstep>
   <time name="total">   17.47   17.49</time>
   <energy>
    <i name="e_fr_energy">   -713.77673254 </i>
    <i name="e_wo_entrp">   -713.77673254 </i>
    <i name="e_0_energy">   -713.77673254 </i>
   </energy>
  </scstep>
  <scstep>
   <time name="total">   17.64   17.67</time>
   <energy>
    <i name="e_fr_energy">   -714.06705525 </i>
    <i name="e_wo_entrp">   -714.06705525 </i>
    <i name="e_0_energy">   -714.06705525 </i>
   </energy>
  </scstep>
  <scstep>
   <time name="total">   17.72   17.78</time>
   <energy>
    <i name="e_fr_energy">   -714.08316086 </i>
    <i name="e_wo_entrp">   -714.08316086 </i>
    <i name="e_0_energy">   -714.08316086 </i>
   </energy>
  </scstep>
  <scstep>
   <time name="total">   18.38   18.43</time>
   <energy>
    <i name="e_fr_energy">   -714.08464216 </i>
    <i name="e_wo_entrp">   -714.08464216 </i>
    <i name="e_0_energy">   -714.08464216 </i>
   </energy>
  </scstep>
  <scstep>
   <time name="total">   19.31   19.34</time>
   <energy>
    <i name="e_fr_energy">   -714.08480401 </i>
    <i name="e_wo_entrp">   -714.08480401 </i>
    <i name="e_0_energy">   -714.08480401 </i>
   </energy>
  </scstep>
  <scstep>
   <time name="total">   19.72   19.85</time>
   <energy>
    <i name="e_fr_energy">   -714.08483752 </i>
    <i name="e_wo_entrp">   -714.08483752 </i>
    <i name="e_0_energy">   -714.08483752 </i>
   </energy>
  </scstep>
  <scstep>
   <time name="total">   20.01   20.05</time>
   <energy>
    <i name="e_fr_energy">   -714.08473243 </i>
    <i name="e_wo_entrp">   -714.08473243 </i>
    <i name="e_0_energy">   -714.08473243 </i>
   </energy>
  </scstep>
  <scstep>
   <time name="total">   19.90   19.93</time>
   <energy>
    <i name="e_fr_energy">   -714.08481699 </i>
    <i name="e_wo_entrp">   -714.08481699 </i>
    <i name="e_0_energy">   -714.08481699 </i>
   </energy>
  </scstep>
  <scstep>
   <time name="total">   19.77   19.81</time>
   <energy>
    <i name="e_fr_energy">   -714.08477192 </i>
    <i name="e_wo_entrp">   -714.08477192 </i>
    <i name="e_0_energy">   -714.08477192 </i>
   </energy>
  </scstep>
  <scstep>
   <time name="total">   26.26   26.31</time>
   <energy>
    <i name="e_fr_energy">   -838.03922437 </i>
    <i name="e_wo_entrp">   -838.03922437 </i>
    <i name="e_0_energy">   -838.03922437 </i>
   </energy>
  </scstep>
  <scstep>
   <time name="total">   24.30   24.34</time>
   <energy>
    <i name="e_fr_energy">   -721.56342039 </i>
    <i name="e_wo_entrp">   -721.56342039 </i>
    <i name="e_0_energy">   -721.56342039 </i>
   </energy>
  </scstep>
  <scstep>
   <time name="total">   24.72   24.79</time>
   <energy>
    <i name="e_fr_energy">   -760.10264453 </i>
    <i name="e_wo_entrp">   -760.10264453 </i>
    <i name="e_0_energy">   -760.10264453 </i>
   </energy>
  </scstep>
  <scstep>
   <time name="total">   17.51   17.53</time>
   <energy>
    <i name="e_fr_energy">   -763.57447467 </i>
    <i name="e_wo_entrp">   -763.57447467 </i>
    <i name="e_0_energy">   -763.57447467 </i>
   </energy>
  </scstep>
  <scstep>
   <time name="total">   17.59   17.61</time>
   <energy>
    <i name="e_fr_energy">   -763.84224590 </i>
    <i name="e_wo_entrp">   -763.84224590 </i>
    <i name="e_0_energy">   -763.84224590 </i>
   </energy>
  </scstep>
  <scstep>
   <time name="total">   17.71   17.76</time>
   <energy>
    <i name="e_fr_energy">   -763.85708350 </i>
    <i name="e_wo_entrp">   -763.85708350 </i>
    <i name="e_0_energy">   -763.85708350 </i>
   </energy>
  </scstep>
  <scstep>
   <time name="total">   18.29   18.31</time>
   <energy>
    <i name="e_fr_energy">   -763.85857425 </i>
    <i name="e_wo_entrp">   -763.85857425 </i>
    <i name="e_0_energy">   -763.85857425 </i>
   </energy>
  </scstep>
  <scstep>
   <time name="total">   19.36   19.38</time>
   <energy>
    <i name="e_fr_energy">   -763.85861808 </i>
    <i name="e_wo_entrp">   -763.85861808 </i>
    <i name="e_0_energy">   -763.85861808 </i>
   </energy>
  </scstep>
  <scstep>
   <time name="total">   19.78   19.83</time>
   <energy>
    <i name="e_fr_energy">   -763.85858676 </i>
    <i name="e_wo_entrp">   -763.85858676 </i>
    <i name="e_0_energy">   -763.85858676 </i>
   </energy>
  </scstep>
  <scstep>
   <time name="total">   19.75   19.78</time>
   <energy>
    <i name="e_fr_energy">   -763.85858444 </i>
    <i name="e_wo_entrp">   -763.85858444 </i>
    <i name="e_0_energy">   -763.85858444 </i>
   </energy>
  </scstep>
  <scstep>
   <time name="total">   19.94   19.96</time>
   <energy>
    <i name="e_fr_energy">   -763.85857110 </i>
    <i name="e_wo_entrp">   -763.85857110 </i>
    <i name="e_0_energy">   -763.85857110 </i>
   </energy>
  </scstep>
  <scstep>
   <time name="total">   19.54   19.58</time>
   <energy>
    <i name="e_fr_energy">   -763.85853621 </i>
    <i name="e_wo_entrp">   -763.85853621 </i>
    <i name="e_0_energy">   -763.85853621 </i>
   </energy>
  </scstep>
  <scstep>
   <time name="total">   26.44   26.46</time>
   <energy>
    <i name="e_fr_energy">   -842.36481721 </i>
    <i name="e_wo_entrp">   -842.36481721 </i>
    <i name="e_0_energy">   -842.36481721 </i>
   </energy>
  </scstep>
  <scstep>
   <time name="total">   24.41   24.44</time>
   <energy>
    <i name="e_fr_energy">   -699.85333961 </i>
    <i name="e_wo_entrp">   -699.85333961 </i>
    <i name="e_0_energy">   -699.85333961 </i>
   </energy>
  </scstep>
  <scstep>
   <time name="total">   24.73   24.89</time>
   <energy>
    <i name="e_fr_energy">   -735.09703494 </i>
    <i name="e_wo_entrp">   -735.09703494 </i>
    <i name="e_0_energy">   -735.09703494 </i>
   </energy>
  </scstep>
  <scstep>
   <time name="total">   17.42   17.52</time>
   <energy>
    <i name="e_fr_energy">   -738.24751588 </i>
    <i name="e_wo_entrp">   -738.24751588 </i>
    <i name="e_0_energy">   -738.24751588 </i>
   </energy>
  </scstep>
  <scstep>
   <time name="total">   17.56   17.67</time>
   <energy>
    <i name="e_fr_energy">   -738.50931088 </i>
    <i name="e_wo_entrp">   -738.50931088 </i>
    <i name="e_0_energy">   -738.50931088 </i>
   </energy>
  </scstep>
  <scstep>
   <time name="total">   17.63   17.78</time>
   <energy>
    <i name="e_fr_energy">   -738.52289843 </i>
    <i name="e_wo_entrp">   -738.52289843 </i>
    <i name="e_0_energy">   -738.52289843 </i>
   </energy>
  </scstep>
  <scstep>
   <time name="total">   18.36   18.46</time>
   <energy>
    <i name="e_fr_energy">   -738.52418493 </i>
    <i name="e_wo_entrp">   -738.52418493 </i>
    <i name="e_0_energy">   -738.52418493 </i>
   </energy>
  </scstep>
  <scstep>
   <time name="total">   19.01   19.11</time>
   <energy>
    <i name="e_fr_energy">   -738.52433596 </i>
    <i name="e_wo_entrp">   -738.52433596 </i>
    <i name="e_0_energy">   -738.52433596 </i>
   </energy>
  </scstep>
  <scstep>
   <time name="total">   19.33   19.46</time>
   <energy>
    <i name="e_fr_energy">   -738.52434712 </i>
    <i name="e_wo_entrp">   -738.52434712 </i>
    <i name="e_0_energy">   -738.52434712 </i>
   </energy>
  </scstep>
  <scstep>
   <time name="total">   19.57   19.68</time>
   <energy>
    <i name="e_fr_energy">   -738.52434772 </i>
    <i name="e_wo_entrp">   -738.52434772 </i>
    <i name="e_0_energy">   -738.52434772 </i>
   </energy>
  </scstep>
  <scstep>
   <time name="total">   19.45   19.55</time>
   <energy>
    <i name="e_fr_energy">   -738.52435317 </i>
    <i name="e_wo_entrp">   -738.52435317 </i>
    <i name="e_0_energy">   -738.52435317 </i>
   </energy>
  </scstep>
  <scstep>
   <time name="total">   19.28   19.42</time>
   <energy>
    <i name="e_fr_energy">   -738.52433812 </i>
    <i name="e_wo_entrp">   -738.52433812 </i>
    <i name="e_0_energy">   -738.52433812 </i>
   </energy>
  </scstep>
  <scstep>
   <time name="total">   24.50   24.63</time>
   <energy>
    <i name="e_fr_energy">     -7.70598807 </i>
    <i name="e_wo_entrp">     -7.70598807 </i>
    <i name="e_0_energy">     -7.70598807 </i>
   </energy>
  </scstep>
  <scstep>
   <time name="total">   23.67   23.80</time>
   <energy>
    <i name="e_fr_energy">    -21.04016772 </i>
    <i name="e_wo_entrp">    -21.04016772 </i>
    <i name="e_0_energy">    -21.04016772 </i>
   </energy>
  </scstep>
  <scstep>
   <time name="total">   25.06   25.19</time>
   <energy>
    <i name="e_fr_energy">    -24.23011660 </i>
    <i name="e_wo_entrp">    -24.23011660 </i>
    <i name="e_0_energy">    -24.23011660 </i>
   </energy>
  </scstep>
  <scstep>
   <time name="total">   25.77   25.90</time>
   <energy>
    <i name="e_fr_energy">    -24.45306303 </i>
    <i name="e_wo_entrp">    -24.45306303 </i>
    <i name="e_0_energy">    -24.45306303 </i>
   </energy>
  </scstep>
  <scstep>
   <time name="total">   26.00   26.15</time>
   <energy>
    <i name="e_fr_energy">    -24.46636392 </i>
    <i name="e_wo_entrp">    -24.46636392 </i>
    <i name="e_0_energy">    -24.46636392 </i>
   </energy>
  </scstep>
  <scstep>
   <time name="total">   25.93   26.06</time>
   <energy>
    <i name="e_fr_energy">    -24.46718234 </i>
    <i name="e_wo_entrp">    -24.46718234 </i>
    <i name="e_0_energy">    -24.46718234 </i>
   </energy>
  </scstep>
  <scstep>
   <time name="total">   26.28   26.43</time>
   <energy>
    <i name="e_fr_energy">    -24.46721390 </i>
    <i name="e_wo_entrp">    -24.46721390 </i>
    <i name="e_0_energy">    -24.46721390 </i>
   </energy>
  </scstep>
  <scstep>
   <time name="total">   26.39   26.52</time>
   <energy>
    <i name="e_fr_energy">    -24.46721228 </i>
    <i name="e_wo_entrp">    -24.46721228 </i>
    <i name="e_0_energy">    -24.46721228 </i>
   </energy>
  </scstep>
  <scstep>
   <time name="total">   25.74   25.87</time>
   <energy>
    <i name="e_fr_energy">    -24.46721393 </i>
    <i name="e_wo_entrp">    -24.46721393 </i>
    <i name="e_0_energy">    -24.46721393 </i>
   </energy>
  </scstep>
  <scstep>
   <time name="total">   24.78   24.90</time>
   <energy>
    <i name="e_fr_energy">    -24.46720879 </i>
    <i name="e_wo_entrp">    -24.46720879 </i>
    <i name="e_0_energy">    -24.46720879 </i>
   </energy>
  </scstep>
  <scstep>
   <time name="total">   24.19   24.30</time>
   <energy>
    <i name="e_fr_energy">    -24.46721090 </i>
    <i name="e_wo_entrp">    -24.46721090 </i>
    <i name="e_0_energy">    -24.46721090 </i>
   </energy>
  </scstep>
  <scstep>
   <time name="total">   24.20   24.33</time>
   <energy>
    <i name="e_fr_energy">    -24.46720987 </i>
    <i name="e_wo_entrp">    -24.46720987 </i>
    <i name="e_0_energy">    -24.46720987 </i>
   </energy>
  </scstep>
  <scstep>
   <time name="total">   24.54   24.66</time>
   <energy>
    <i name="e_fr_energy">     -9.44737444 </i>
    <i name="e_wo_entrp">     -9.44737444 </i>
    <i name="e_0_energy">     -9.44737444 </i>
   </energy>
  </scstep>
  <scstep>
   <time name="total">   23.75   23.88</time>
   <energy>
    <i name="e_fr_energy">    -27.46667167 </i>
    <i name="e_wo_entrp">    -27.46667167 </i>
    <i name="e_0_energy">    -27.46667167 </i>
   </energy>
  </scstep>
  <scstep>
   <time name="total">   25.12   25.26</time>
   <energy>
    <i name="e_fr_energy">    -32.06616562 </i>
    <i name="e_wo_entrp">    -32.06616562 </i>
    <i name="e_0_energy">    -32.06616562 </i>
   </energy>
  </scstep>
  <scstep>
   <time name="total">   25.88   26.00</time>
   <energy>
    <i name="e_fr_energy">    -32.32244901 </i>
    <i name="e_wo_entrp">    -32.32244901 </i>
    <i name="e_0_energy">    -32.32244901 </i>
   </energy>
  </scstep>
  <scstep>
   <time name="total">   25.98   26.12</time>
   <energy>
    <i name="e_fr_energy">    -32.33722635 </i>
    <i name="e_wo_entrp">    -32.33722635 </i>
    <i name="e_0_energy">    -32.33722635 </i>
   </energy>
  </scstep>
  <scstep>
   <time name="total">   25.94   26.07</time>
   <energy>
    <i name="e_fr_energy">    -32.33768888 </i>
    <i name="e_wo_entrp">    -32.33768888 </i>
    <i name="e_0_energy">    -32.33768888 </i>
   </energy>
  </scstep>
  <scstep>
   <time name="total">   26.37   26.52</time>
   <energy>
    <i name="e_fr_energy">    -32.33760413 </i>
    <i name="e_wo_entrp">    -32.33760413 </i>
    <i name="e_0_energy">    -32.33760413 </i>
   </energy>
  </scstep>
  <scstep>
   <time name="total">   26.36   26.49</time>
   <energy>
    <i name="e_fr_energy">    -32.33759878 </i>
    <i name="e_wo_entrp">    -32.33759878 </i>
    <i name="e_0_energy">    -32.33759878 </i>
   </energy>
  </scstep>
  <scstep>
   <time name="total">   25.99   26.12</time>
   <energy>
    <i name="e_fr_energy">    -32.33759453 </i>
    <i name="e_wo_entrp">    -32.33759453 </i>
    <i name="e_0_energy">    -32.33759453 </i>
   </energy>
  </scstep>
  <scstep>
   <time name="total">   24.90   25.03</time>
   <energy>
    <i name="e_fr_energy">    -32.33758629 </i>
    <i name="e_wo_entrp">    -32.33758629 </i>
    <i name="e_0_energy">    -32.33758629 </i>
   </energy>
  </scstep>
  <scstep>
   <time name="total">   24.39   24.51</time>
   <energy>
    <i name="e_fr_energy">    -32.33758027 </i>
    <i name="e_wo_entrp">    -32.33758027 </i>
    <i name="e_0_energy">    -32.33758027 </i>
   </energy>
  </scstep>
  <scstep>
   <time name="total">   24.22   24.35</time>
   <energy>
    <i name="e_fr_energy">    -32.33757807 </i>
    <i name="e_wo_entrp">    -32.33757807 </i>
    <i name="e_0_energy">    -32.33757807 </i>
   </energy>
  </scstep>
  <scstep>
   <time name="total">   24.24   24.35</time>
   <energy>
    <i name="e_fr_energy">    -32.33758240 </i>
    <i name="e_wo_entrp">    -32.33758240 </i>
    <i name="e_0_energy">    -32.33758240 </i>
   </energy>
  </scstep>
  <scstep>
   <time name="total">   24.53   24.67</time>
   <energy>
    <i name="e_fr_energy">     -9.03670306 </i>
    <i name="e_wo_entrp">     -9.03670306 </i>
    <i name="e_0_energy">     -9.03670306 </i>
   </energy>
  </scstep>
  <scstep>
   <time name="total">   24.07   24.17</time>
   <energy>
    <i name="e_fr_energy">    -27.52044727 </i>
    <i name="e_wo_entrp">    -27.52044727 </i>
    <i name="e_0_energy">    -27.52044727 </i>
   </energy>
  </scstep>
  <scstep>
   <time name="total">   25.29   25.44</time>
   <energy>
    <i name="e_fr_energy">    -32.31527351 </i>
    <i name="e_wo_entrp">    -32.31527351 </i>
    <i name="e_0_energy">    -32.31527351 </i>
   </energy>
  </scstep>
  <scstep>
   <time name="total">   25.87   26.02</time>
   <energy>
    <i name="e_fr_energy">    -32.64752840 </i>
    <i name="e_wo_entrp">    -32.64752840 </i>
    <i name="e_0_energy">    -32.64752840 </i>
   </energy>
  </scstep>
  <scstep>
   <time name="total">   26.05   26.18</time>
   <energy>
    <i name="e_fr_energy">    -32.65937787 </i>
    <i name="e_wo_entrp">    -32.65937787 </i>
    <i name="e_0_energy">    -32.65937787 </i>
   </energy>
  </scstep>
  <scstep>
   <time name="total">   26.06   26.22</time>
   <energy>
    <i name="e_fr_energy">    -32.66052981 </i>
    <i name="e_wo_entrp">    -32.66052981 </i>
    <i name="e_0_energy">    -32.66052981 </i>
   </energy>
  </scstep>
  <scstep>
   <time name="total">   26.21   26.39</time>
   <energy>
    <i name="e_fr_energy">    -32.66061132 </i>
    <i name="e_wo_entrp">    -32.66061132 </i>
    <i name="e_0_energy">    -32.66061132 </i>
   </energy>
  </scstep>
  <scstep>
   <time name="total">   26.41   26.56</time>
   <energy>
    <i name="e_fr_energy">    -32.66071376 </i>
    <i name="e_wo_entrp">    -32.66071376 </i>
    <i name="e_0_energy">    -32.66071376 </i>
   </energy>
  </scstep>
  <scstep>
   <time name="total">   25.63   25.78</time>
   <energy>
    <i name="e_fr_energy">    -32.66072212 </i>
    <i name="e_wo_entrp">    -32.66072212 </i>
    <i name="e_0_energy">    -32.66072212 </i>
   </energy>
  </scstep>
  <scstep>
   <time name="total">   24.82   24.96</time>
   <energy>
    <i name="e_fr_energy">    -32.66074051 </i>
    <i name="e_wo_entrp">    -32.66074051 </i>
    <i name="e_0_energy">    -32.66074051 </i>
   </energy>
  </scstep>
  <scstep>
   <time name="total">   24.21   24.33</time>
   <energy>
    <i name="e_fr_energy">    -32.66073814 </i>
    <i name="e_wo_entrp">    -32.66073814 </i>
    <i name="e_0_energy">    -32.66073814 </i>
   </energy>
  </scstep>
  <scstep>
   <time name="total">   24.14   24.25</time>
   <energy>
    <i name="e_fr_energy">    -32.66074306 </i>
    <i name="e_wo_entrp">    -32.66074306 </i>
    <i name="e_0_energy">    -32.66074306 </i>
   </energy>
  </scstep>
  <varray name="epsilon_rpa" >
   <v>      16.40736261      -1.16725153       1.40934984 </v>
   <v>      -1.16725153      17.64625948      -2.34344079 </v>
   <v>       1.40936178      -2.34346064      19.42969471 </v>
  </varray>
  <kpoints>
   <generation param="Gamma">
    <v type="int" name="divisions">       6        6        6 </v>
    <v name="usershift">      0.00000000       0.00000000       0.00000000 </v>
    <v name="genvec1">      0.16666667       0.00000000       0.00000000 </v>
    <v name="genvec2">     -0.00000000       0.16666667      -0.00000000 </v>
    <v name="genvec3">      0.00000000      -0.00000000       0.16666667 </v>
    <v name="shift">      0.00000000       0.00000000       0.00000000 </v>
   </generation>
   <varray name="kpointlist" >
    <v>       0.00000000       0.00000000       0.00000000 </v>
    <v>       0.16666667       0.00000000      -0.00000000 </v>
    <v>       0.33333333       0.00000000      -0.00000000 </v>
    <v>       0.50000000       0.00000000      -0.00000000 </v>
    <v>       0.00000000       0.16666667      -0.00000000 </v>
    <v>       0.16666667       0.16666667      -0.00000000 </v>
    <v>       0.33333333       0.16666667      -0.00000000 </v>
    <v>       0.50000000       0.16666667      -0.00000000 </v>
    <v>      -0.33333333       0.16666667       0.00000000 </v>
    <v>      -0.16666667       0.16666667      -0.00000000 </v>
    <v>       0.00000000       0.33333333      -0.00000000 </v>
    <v>       0.16666667       0.33333333      -0.00000000 </v>
    <v>       0.33333333       0.33333333      -0.00000000 </v>
    <v>       0.50000000       0.33333333      -0.00000000 </v>
    <v>      -0.33333333       0.33333333       0.00000000 </v>
    <v>      -0.16666667       0.33333333       0.00000000 </v>
    <v>       0.00000000       0.50000000      -0.00000000 </v>
    <v>       0.16666667       0.50000000      -0.00000000 </v>
    <v>       0.33333333       0.50000000      -0.00000000 </v>
    <v>       0.50000000       0.50000000      -0.00000000 </v>
    <v>      -0.00000000      -0.00000000       0.16666667 </v>
    <v>       0.16666667       0.00000000       0.16666667 </v>
    <v>       0.33333333      -0.00000000       0.16666667 </v>
    <v>       0.50000000      -0.00000000       0.16666667 </v>
    <v>      -0.33333333      -0.00000000       0.16666667 </v>
    <v>      -0.16666667      -0.00000000       0.16666667 </v>
    <v>       0.00000000       0.16666667       0.16666667 </v>
    <v>       0.16666667       0.16666667       0.16666667 </v>
    <v>       0.33333333       0.16666667       0.16666667 </v>
    <v>       0.50000000       0.16666667       0.16666667 </v>
    <v>      -0.33333333       0.16666667       0.16666667 </v>
    <v>      -0.16666667       0.16666667       0.16666667 </v>
    <v>       0.00000000       0.33333333       0.16666667 </v>
    <v>       0.16666667       0.33333333       0.16666667 </v>
    <v>       0.33333333       0.33333333       0.16666667 </v>
    <v>       0.50000000       0.33333333       0.16666667 </v>
    <v>      -0.33333333       0.33333333       0.16666667 </v>
    <v>      -0.16666667       0.33333333       0.16666667 </v>
    <v>       0.00000000       0.50000000       0.16666667 </v>
    <v>       0.16666667       0.50000000       0.16666667 </v>
    <v>       0.33333333       0.50000000       0.16666667 </v>
    <v>       0.50000000       0.50000000       0.16666667 </v>
    <v>      -0.33333333       0.50000000       0.16666667 </v>
    <v>      -0.16666667       0.50000000       0.16666667 </v>
    <v>      -0.00000000      -0.33333333       0.16666667 </v>
    <v>       0.16666667      -0.33333333       0.16666667 </v>
    <v>       0.33333333      -0.33333333       0.16666667 </v>
    <v>       0.50000000      -0.33333333       0.16666667 </v>
    <v>      -0.33333333      -0.33333333       0.16666667 </v>
    <v>      -0.16666667      -0.33333333       0.16666667 </v>
    <v>      -0.00000000      -0.16666667       0.16666667 </v>
    <v>       0.16666667      -0.16666667       0.16666667 </v>
    <v>       0.33333333      -0.16666667       0.16666667 </v>
    <v>       0.50000000      -0.16666667       0.16666667 </v>
    <v>      -0.33333333      -0.16666667       0.16666667 </v>
    <v>      -0.16666667      -0.16666667       0.16666667 </v>
    <v>      -0.00000000      -0.00000000       0.33333333 </v>
    <v>       0.16666667      -0.00000000       0.33333333 </v>
    <v>       0.33333333      -0.00000000       0.33333333 </v>
    <v>       0.50000000      -0.00000000       0.33333333 </v>
    <v>      -0.33333333      -0.00000000       0.33333333 </v>
    <v>      -0.16666667       0.00000000       0.33333333 </v>
    <v>       0.00000000       0.16666667       0.33333333 </v>
    <v>       0.16666667       0.16666667       0.33333333 </v>
    <v>       0.33333333       0.16666667       0.33333333 </v>
    <v>       0.50000000       0.16666667       0.33333333 </v>
    <v>      -0.33333333       0.16666667       0.33333333 </v>
    <v>      -0.16666667       0.16666667       0.33333333 </v>
    <v>       0.00000000       0.33333333       0.33333333 </v>
    <v>       0.16666667       0.33333333       0.33333333 </v>
    <v>       0.33333333       0.33333333       0.33333333 </v>
    <v>       0.50000000       0.33333333       0.33333333 </v>
    <v>      -0.33333333       0.33333333       0.33333333 </v>
    <v>      -0.16666667       0.33333333       0.33333333 </v>
    <v>       0.00000000       0.50000000       0.33333333 </v>
    <v>       0.16666667       0.50000000       0.33333333 </v>
    <v>       0.33333333       0.50000000       0.33333333 </v>
    <v>       0.50000000       0.50000000       0.33333333 </v>
    <v>      -0.33333333       0.50000000       0.33333333 </v>
    <v>      -0.16666667       0.50000000       0.33333333 </v>
    <v>      -0.00000000      -0.33333333       0.33333333 </v>
    <v>       0.16666667      -0.33333333       0.33333333 </v>
    <v>       0.33333333      -0.33333333       0.33333333 </v>
    <v>       0.50000000      -0.33333333       0.33333333 </v>
    <v>      -0.33333333      -0.33333333       0.33333333 </v>
    <v>      -0.16666667      -0.33333333       0.33333333 </v>
    <v>       0.00000000      -0.16666667       0.33333333 </v>
    <v>       0.16666667      -0.16666667       0.33333333 </v>
    <v>       0.33333333      -0.16666667       0.33333333 </v>
    <v>       0.50000000      -0.16666667       0.33333333 </v>
    <v>      -0.33333333      -0.16666667       0.33333333 </v>
    <v>      -0.16666667      -0.16666667       0.33333333 </v>
    <v>      -0.00000000       0.00000000       0.50000000 </v>
    <v>       0.16666667       0.00000000       0.50000000 </v>
    <v>       0.33333333      -0.00000000       0.50000000 </v>
    <v>       0.50000000      -0.00000000       0.50000000 </v>
    <v>       0.00000000       0.16666667       0.50000000 </v>
    <v>       0.16666667       0.16666667       0.50000000 </v>
    <v>       0.33333333       0.16666667       0.50000000 </v>
    <v>       0.50000000       0.16666667       0.50000000 </v>
    <v>      -0.33333333       0.16666667       0.50000000 </v>
    <v>      -0.16666667       0.16666667       0.50000000 </v>
    <v>       0.00000000       0.33333333       0.50000000 </v>
    <v>       0.16666667       0.33333333       0.50000000 </v>
    <v>       0.33333333       0.33333333       0.50000000 </v>
    <v>       0.50000000       0.33333333       0.50000000 </v>
    <v>      -0.33333333       0.33333333       0.50000000 </v>
    <v>      -0.16666667       0.33333333       0.50000000 </v>
    <v>       0.00000000       0.50000000       0.50000000 </v>
    <v>       0.16666667       0.50000000       0.50000000 </v>
    <v>       0.33333333       0.50000000       0.50000000 </v>
    <v>       0.50000000       0.50000000       0.50000000 </v>
   </varray>
   <varray name="weights" >
    <v>       0.00462963 </v>
    <v>       0.00925926 </v>
    <v>       0.00925926 </v>
    <v>       0.00462963 </v>
    <v>       0.00925926 </v>
    <v>       0.00925926 </v>
    <v>       0.00925926 </v>
    <v>       0.00925926 </v>
    <v>       0.00925926 </v>
    <v>       0.00925926 </v>
    <v>       0.00925926 </v>
    <v>       0.00925926 </v>
    <v>       0.00925926 </v>
    <v>       0.00925926 </v>
    <v>       0.00925926 </v>
    <v>       0.00925926 </v>
    <v>       0.00462963 </v>
    <v>       0.00925926 </v>
    <v>       0.00925926 </v>
    <v>       0.00462963 </v>
    <v>       0.00925926 </v>
    <v>       0.00925926 </v>
    <v>       0.00925926 </v>
    <v>       0.00925926 </v>
    <v>       0.00925926 </v>
    <v>       0.00925926 </v>
    <v>       0.00925926 </v>
    <v>       0.00925926 </v>
    <v>       0.00925926 </v>
    <v>       0.00925926 </v>
    <v>       0.00925926 </v>
    <v>       0.00925926 </v>
    <v>       0.00925926 </v>
    <v>       0.00925926 </v>
    <v>       0.00925926 </v>
    <v>       0.00925926 </v>
    <v>       0.00925926 </v>
    <v>       0.00925926 </v>
    <v>       0.00925926 </v>
    <v>       0.00925926 </v>
    <v>       0.00925926 </v>
    <v>       0.00925926 </v>
    <v>       0.00925926 </v>
    <v>       0.00925926 </v>
    <v>       0.00925926 </v>
    <v>       0.00925926 </v>
    <v>       0.00925926 </v>
    <v>       0.00925926 </v>
    <v>       0.00925926 </v>
    <v>       0.00925926 </v>
    <v>       0.00925926 </v>
    <v>       0.00925926 </v>
    <v>       0.00925926 </v>
    <v>       0.00925926 </v>
    <v>       0.00925926 </v>
    <v>       0.00925926 </v>
    <v>       0.00925926 </v>
    <v>       0.00925926 </v>
    <v>       0.00925926 </v>
    <v>       0.00925926 </v>
    <v>       0.00925926 </v>
    <v>       0.00925926 </v>
    <v>       0.00925926 </v>
    <v>       0.00925926 </v>
    <v>       0.00925926 </v>
    <v>       0.00925926 </v>
    <v>       0.00925926 </v>
    <v>       0.00925926 </v>
    <v>       0.00925926 </v>
    <v>       0.00925926 </v>
    <v>       0.00925926 </v>
    <v>       0.00925926 </v>
    <v>       0.00925926 </v>
    <v>       0.00925926 </v>
    <v>       0.00925926 </v>
    <v>       0.00925926 </v>
    <v>       0.00925926 </v>
    <v>       0.00925926 </v>
    <v>       0.00925926 </v>
    <v>       0.00925926 </v>
    <v>       0.00925926 </v>
    <v>       0.00925926 </v>
    <v>       0.00925926 </v>
    <v>       0.00925926 </v>
    <v>       0.00925926 </v>
    <v>       0.00925926 </v>
    <v>       0.00925926 </v>
    <v>       0.00925926 </v>
    <v>       0.00925926 </v>
    <v>       0.00925926 </v>
    <v>       0.00925926 </v>
    <v>       0.00925926 </v>
    <v>       0.00462963 </v>
    <v>       0.00925926 </v>
    <v>       0.00925926 </v>
    <v>       0.00462963 </v>
    <v>       0.00925926 </v>
    <v>       0.00925926 </v>
    <v>       0.00925926 </v>
    <v>       0.00925926 </v>
    <v>       0.00925926 </v>
    <v>       0.00925926 </v>
    <v>       0.00925926 </v>
    <v>       0.00925926 </v>
    <v>       0.00925926 </v>
    <v>       0.00925926 </v>
    <v>       0.00925926 </v>
    <v>       0.00925926 </v>
    <v>       0.00462963 </v>
    <v>       0.00925926 </v>
    <v>       0.00925926 </v>
    <v>       0.00462963 </v>
   </varray>
  </kpoints>
  <scstep>
   <time name="total">   39.40   39.60</time>
   <energy>
    <i name="e_fr_energy">     -8.52710296 </i>
    <i name="e_wo_entrp">     -8.52710296 </i>
    <i name="e_0_energy">     -8.52710296 </i>
   </energy>
  </scstep>
  <scstep>
   <time name="total">   39.41   39.62</time>
   <energy>
    <i name="e_fr_energy">    -23.36650134 </i>
    <i name="e_wo_entrp">    -23.36650134 </i>
    <i name="e_0_energy">    -23.36650134 </i>
   </energy>
  </scstep>
  <scstep>
   <time name="total">   41.56   41.78</time>
   <energy>
    <i name="e_fr_energy">    -25.29979942 </i>
    <i name="e_wo_entrp">    -25.29979942 </i>
    <i name="e_0_energy">    -25.29979942 </i>
   </energy>
  </scstep>
  <scstep>
   <time name="total">   41.61   41.83</time>
   <energy>
    <i name="e_fr_energy">    -25.60728243 </i>
    <i name="e_wo_entrp">    -25.60728243 </i>
    <i name="e_0_energy">    -25.60728243 </i>
   </energy>
  </scstep>
  <scstep>
   <time name="total">   40.63   40.85</time>
   <energy>
    <i name="e_fr_energy">    -25.65748633 </i>
    <i name="e_wo_entrp">    -25.65748633 </i>
    <i name="e_0_energy">    -25.65748633 </i>
   </energy>
  </scstep>
  <scstep>
   <time name="total">   44.84   45.09</time>
   <energy>
    <i name="e_fr_energy">    -25.81063182 </i>
    <i name="e_wo_entrp">    -25.81063182 </i>
    <i name="e_0_energy">    -25.81063182 </i>
   </energy>
  </scstep>
  <scstep>
   <time name="total">   40.78   41.00</time>
   <energy>
    <i name="e_fr_energy">    -25.82749449 </i>
    <i name="e_wo_entrp">    -25.82749449 </i>
    <i name="e_0_energy">    -25.82749449 </i>
   </energy>
  </scstep>
  <scstep>
   <time name="total">   40.74   40.96</time>
   <energy>
    <i name="e_fr_energy">    -25.84552716 </i>
    <i name="e_wo_entrp">    -25.84552716 </i>
    <i name="e_0_energy">    -25.84552716 </i>
   </energy>
  </scstep>
  <scstep>
   <time name="total">   39.52   39.72</time>
   <energy>
    <i name="e_fr_energy">    -25.85313879 </i>
    <i name="e_wo_entrp">    -25.85313879 </i>
    <i name="e_0_energy">    -25.85313879 </i>
   </energy>
  </scstep>
  <scstep>
   <time name="total">   43.67   43.92</time>
   <energy>
    <i name="e_fr_energy">    -25.85467274 </i>
    <i name="e_wo_entrp">    -25.85467274 </i>
    <i name="e_0_energy">    -25.85467274 </i>
   </energy>
  </scstep>
  <scstep>
   <time name="total">   42.84   43.08</time>
   <energy>
    <i name="e_fr_energy">    -25.85613314 </i>
    <i name="e_wo_entrp">    -25.85613314 </i>
    <i name="e_0_energy">    -25.85613314 </i>
   </energy>
  </scstep>
  <scstep>
   <time name="total">   41.56   41.78</time>
   <energy>
    <i name="e_fr_energy">    -25.85729468 </i>
    <i name="e_wo_entrp">    -25.85729468 </i>
    <i name="e_0_energy">    -25.85729468 </i>
   </energy>
  </scstep>
  <scstep>
   <time name="total">   44.15   44.37</time>
   <energy>
    <i name="e_fr_energy">    -25.85737758 </i>
    <i name="e_wo_entrp">    -25.85737758 </i>
    <i name="e_0_energy">    -25.85737758 </i>
   </energy>
  </scstep>
  <scstep>
   <time name="total">   44.25   44.51</time>
   <energy>
    <i name="e_fr_energy">    -25.85749346 </i>
    <i name="e_wo_entrp">    -25.85749346 </i>
    <i name="e_0_energy">    -25.85749346 </i>
   </energy>
  </scstep>
  <scstep>
   <time name="total">   44.44   44.70</time>
   <energy>
    <i name="e_fr_energy">    -25.85752401 </i>
    <i name="e_wo_entrp">    -25.85752401 </i>
    <i name="e_0_energy">    -25.85752401 </i>
   </energy>
  </scstep>
  <scstep>
   <time name="total">   43.95   44.21</time>
   <energy>
    <i name="e_fr_energy">    -25.85753605 </i>
    <i name="e_wo_entrp">    -25.85753605 </i>
    <i name="e_0_energy">    -25.85753605 </i>
   </energy>
  </scstep>
  <scstep>
   <time name="total">   45.39   45.65</time>
   <energy>
    <i name="e_fr_energy">    -25.85755031 </i>
    <i name="e_wo_entrp">    -25.85755031 </i>
    <i name="e_0_energy">    -25.85755031 </i>
   </energy>
  </scstep>
  <scstep>
   <time name="total">   43.63   43.84</time>
   <energy>
    <i name="e_fr_energy">    -25.85754744 </i>
    <i name="e_wo_entrp">    -25.85754744 </i>
    <i name="e_0_energy">    -25.85754744 </i>
   </energy>
  </scstep>
  <scstep>
   <time name="total">   42.61   43.08</time>
   <energy>
    <i name="e_fr_energy">    -25.85754844 </i>
    <i name="e_wo_entrp">    -25.85754844 </i>
    <i name="e_0_energy">    -25.85754844 </i>
   </energy>
  </scstep>
  <scstep>
   <time name="total">   41.86   42.08</time>
   <energy>
    <i name="e_fr_energy">    -25.85754893 </i>
    <i name="e_wo_entrp">    -25.85754893 </i>
    <i name="e_0_energy">    -25.85754893 </i>
   </energy>
  </scstep>
  <scstep>
   <time name="total">   42.04   42.24</time>
   <energy>
    <i name="e_fr_energy">    -25.85754839 </i>
    <i name="e_wo_entrp">    -25.85754839 </i>
    <i name="e_0_energy">    -25.85754839 </i>
   </energy>
  </scstep>
  <scstep>
   <time name="total">   41.70   41.94</time>
   <energy>
    <i name="e_fr_energy">    -25.85754900 </i>
    <i name="e_wo_entrp">    -25.85754900 </i>
    <i name="e_0_energy">    -25.85754900 </i>
   </energy>
  </scstep>
  <kpoints>
   <generation param="Gamma">
    <v type="int" name="divisions">       6        6        6 </v>
    <v name="usershift">      0.00000000       0.00000000       0.00000000 </v>
    <v name="genvec1">      0.16666667       0.00000000       0.00000000 </v>
    <v name="genvec2">     -0.00000000       0.16666667      -0.00000000 </v>
    <v name="genvec3">      0.00000000      -0.00000000       0.16666667 </v>
    <v name="shift">      0.00000000       0.00000000       0.00000000 </v>
   </generation>
   <varray name="kpointlist" >
    <v>       0.00000000       0.00000000       0.00000000 </v>
    <v>       0.16666667       0.00000000      -0.00000000 </v>
    <v>       0.33333333       0.00000000      -0.00000000 </v>
    <v>       0.50000000       0.00000000      -0.00000000 </v>
    <v>       0.00000000       0.16666667      -0.00000000 </v>
    <v>       0.16666667       0.16666667      -0.00000000 </v>
    <v>       0.33333333       0.16666667      -0.00000000 </v>
    <v>       0.50000000       0.16666667      -0.00000000 </v>
    <v>      -0.33333333       0.16666667       0.00000000 </v>
    <v>      -0.16666667       0.16666667      -0.00000000 </v>
    <v>       0.00000000       0.33333333      -0.00000000 </v>
    <v>       0.16666667       0.33333333      -0.00000000 </v>
    <v>       0.33333333       0.33333333      -0.00000000 </v>
    <v>       0.50000000       0.33333333      -0.00000000 </v>
    <v>      -0.33333333       0.33333333       0.00000000 </v>
    <v>      -0.16666667       0.33333333       0.00000000 </v>
    <v>       0.00000000       0.50000000      -0.00000000 </v>
    <v>       0.16666667       0.50000000      -0.00000000 </v>
    <v>       0.33333333       0.50000000      -0.00000000 </v>
    <v>       0.50000000       0.50000000      -0.00000000 </v>
    <v>      -0.00000000      -0.00000000       0.16666667 </v>
    <v>       0.16666667       0.00000000       0.16666667 </v>
    <v>       0.33333333      -0.00000000       0.16666667 </v>
    <v>       0.50000000      -0.00000000       0.16666667 </v>
    <v>      -0.33333333      -0.00000000       0.16666667 </v>
    <v>      -0.16666667      -0.00000000       0.16666667 </v>
[...]
       <r>    3.8973    1.0000 </r>
       <r>    3.9330    1.0000 </r>
       <r>    4.0048    1.0000 </r>
       <r>    4.1898    1.0000 </r>
       <r>    4.3882    1.0000 </r>
       <r>    4.4087    1.0000 </r>
       <r>    4.4671    1.0000 </r>
       <r>    4.5020    1.0000 </r>
       <r>    4.7099    1.0000 </r>
       <r>    4.8440    1.0000 </r>
       <r>    4.9326    1.0000 </r>
       <r>    5.0540    1.0000 </r>
       <r>    5.0906    1.0000 </r>
       <r>    5.1156    1.0000 </r>
       <r>    5.2914    1.0000 </r>
       <r>    5.5028    1.0001 </r>
       <r>    5.5202    1.0001 </r>
       <r>    5.5351    1.0001 </r>
       <r>    5.7416    1.0111 </r>
       <r>    7.2414   -0.0000 </r>
       <r>    7.3212   -0.0000 </r>
       <r>    7.3982   -0.0000 </r>
       <r>    7.6308   -0.0000 </r>
       <r>    7.7077   -0.0000 </r>
       <r>    7.7246   -0.0000 </r>
       <r>    7.9300   -0.0000 </r>
       <r>    8.0850   -0.0000 </r>
       <r>    8.1308   -0.0000 </r>
       <r>    8.2082   -0.0000 </r>
       <r>    8.2573   -0.0000 </r>
       <r>    8.4265   -0.0000 </r>
       <r>    8.6144   -0.0000 </r>
       <r>    8.6486   -0.0000 </r>
       <r>    8.8735   -0.0000 </r>
       <r>    8.8875   -0.0000 </r>
       <r>    8.9517   -0.0000 </r>
       <r>    8.9517   -0.0000 </r>
       <r>    9.0533   -0.0000 </r>
       <r>    9.1890   -0.0000 </r>
       <r>    9.3827   -0.0000 </r>
       <r>    9.3957   -0.0000 </r>
       <r>    9.5171   -0.0000 </r>
       <r>    9.5886   -0.0000 </r>
       <r>    9.6292   -0.0000 </r>
       <r>    9.6960   -0.0000 </r>
       <r>    9.9070   -0.0000 </r>
       <r>    9.9333   -0.0000 </r>
       <r>   10.0602   -0.0000 </r>
       <r>   10.1881   -0.0000 </r>
      </set>
     </set>
    </set>
   </array>
  </eigenvalues>
  <separator name="orbital magnetization" >
   <v name="MAGDIPOLOUT">      0.00000000      0.00000000      0.00000000</v>
  </separator>
  <dos>
   <i name="efermi">      6.12030910 </i>
   <total>
    <array>
     <dimension dim="1">gridpoints</dimension>
     <dimension dim="2">spin</dimension>
     <field>energy</field>
     <field>total</field>
     <field>integrated</field>
     <set>
      <set comment="spin 1">
       <r>   -11.0395     0.0000     0.0000 </r>
       <r>   -10.9617     0.0000     0.0000 </r>
       <r>   -10.8839     0.0000     0.0000 </r>
       <r>   -10.8061     0.0000     0.0000 </r>
       <r>   -10.7283     0.0000     0.0000 </r>
       <r>   -10.6505    -0.0000    -0.0000 </r>
       <r>   -10.5726    -0.0000    -0.0000 </r>
       <r>   -10.4948    -0.0000    -0.0000 </r>
       <r>   -10.4170    -0.0000    -0.0000 </r>
       <r>   -10.3392    -0.0000    -0.0000 </r>
       <r>   -10.2614    -0.0000    -0.0000 </r>
       <r>   -10.1836    -0.0000    -0.0000 </r>
       <r>   -10.1058    -0.0000    -0.0000 </r>
       <r>   -10.0280    -0.0000    -0.0000 </r>
       <r>    -9.9502    -0.0000    -0.0000 </r>
       <r>    -9.8724    -0.0000    -0.0000 </r>
       <r>    -9.7946    -0.0000    -0.0000 </r>
       <r>    -9.7168    -0.0000    -0.0000 </r>
       <r>    -9.6390    -0.0001    -0.0000 </r>
       <r>    -9.5612    -0.0006    -0.0001 </r>
       <r>    -9.4834    -0.0042    -0.0004 </r>
       <r>    -9.4056    -0.0200    -0.0019 </r>
       <r>    -9.3278    -0.0673    -0.0072 </r>
       <r>    -9.2499    -0.1511    -0.0189 </r>
       <r>    -9.1721    -0.1793    -0.0329 </r>
       <r>    -9.0943     0.1252    -0.0231 </r>
       <r>    -9.0165     1.1563     0.0668 </r>
       <r>    -8.9387     3.1341     0.3107 </r>
       <r>    -8.8609     5.7365     0.7570 </r>
       <r>    -8.7831     7.9970     1.3792 </r>
       <r>    -8.7053     8.9186     2.0731 </r>
       <r>    -8.6275     8.4504     2.7306 </r>
       <r>    -8.5497     7.4497     3.3103 </r>
       <r>    -8.4719     6.6585     3.8283 </r>
       <r>    -8.3941     6.2729     4.3164 </r>
       <r>    -8.3163     6.0765     4.7892 </r>
       <r>    -8.2385     5.5590     5.2217 </r>
       <r>    -8.1607     4.6339     5.5823 </r>
       <r>    -8.0829     4.1769     5.9072 </r>
       <r>    -8.0051     4.9971     6.2960 </r>
       <r>    -7.9272     6.6411     6.8128 </r>
       <r>    -7.8494     7.9660     7.4326 </r>
       <r>    -7.7716     8.3884     8.0852 </r>
       <r>    -7.6938     7.9771     8.7059 </r>
       <r>    -7.6160     7.0203     9.2521 </r>
       <r>    -7.5382     6.1068     9.7273 </r>
       <r>    -7.4604     5.9928    10.1935 </r>
       <r>    -7.3826     6.9028    10.7306 </r>
       <r>    -7.3048     8.2309    11.3710 </r>
       <r>    -7.2270     9.0443    12.0747 </r>
       <r>    -7.1492     8.7874    12.7584 </r>
       <r>    -7.0714     7.6308    13.3522 </r>
       <r>    -6.9936     6.3124    13.8433 </r>
       <r>    -6.9158     5.5916    14.2784 </r>
       <r>    -6.8380     5.7031    14.7221 </r>
       <r>    -6.7602     6.2043    15.2048 </r>
       <r>    -6.6824     6.5383    15.7135 </r>
       <r>    -6.6045     6.8699    16.2481 </r>
       <r>    -6.5267     7.7806    16.8534 </r>
       <r>    -6.4489     9.2126    17.5702 </r>
       <r>    -6.3711    10.5590    18.3918 </r>
       <r>    -6.2933    11.3386    19.2740 </r>
       <r>    -6.2155    11.3518    20.1572 </r>
       <r>    -6.1377    10.9342    21.0080 </r>
       <r>    -6.0599    10.6710    21.8382 </r>
       <r>    -5.9821    10.2940    22.6392 </r>
       <r>    -5.9043     9.0122    23.3404 </r>
       <r>    -5.8265     7.1540    23.8970 </r>
       <r>    -5.7487     6.0990    24.3715 </r>
       <r>    -5.6709     6.5679    24.8826 </r>
       <r>    -5.5931     8.0666    25.5102 </r>
       <r>    -5.5153     9.8422    26.2760 </r>
       <r>    -5.4375    11.3442    27.1586 </r>
       <r>    -5.3597    11.7384    28.0719 </r>
       <r>    -5.2818    10.1680    28.8631 </r>
       <r>    -5.2040     6.9709    29.4054 </r>
       <r>    -5.1262     3.6825    29.6920 </r>
       <r>    -5.0484     1.5479    29.8124 </r>
       <r>    -4.9706     0.8380    29.8776 </r>
       <r>    -4.8928     1.3652    29.9838 </r>
       <r>    -4.8150     2.6492    30.1899 </r>
       <r>    -4.7372     3.8511    30.4896 </r>
       <r>    -4.6594     4.4623    30.8368 </r>
       <r>    -4.5816     4.8513    31.2142 </r>
       <r>    -4.5038     5.5817    31.6485 </r>
       <r>    -4.4260     6.5297    32.1566 </r>
       <r>    -4.3482     7.1159    32.7102 </r>
       <r>    -4.2704     7.2813    33.2768 </r>
       <r>    -4.1926     7.5151    33.8615 </r>
       <r>    -4.1148     7.6613    34.4576 </r>
       <r>    -4.0370     6.9742    35.0002 </r>
       <r>    -3.9592     5.8058    35.4519 </r>
       <r>    -3.8813     5.7252    35.8974 </r>
       <r>    -3.8035     7.4675    36.4784 </r>
       <r>    -3.7257     9.8750    37.2467 </r>
       <r>    -3.6479    11.2318    38.1206 </r>
       <r>    -3.5701    10.9191    38.9702 </r>
       <r>    -3.4923     9.6551    39.7214 </r>
       <r>    -3.4145     8.6440    40.3940 </r>
       <r>    -3.3367     8.3008    41.0398 </r>
       <r>    -3.2589     7.8136    41.6478 </r>
       <r>    -3.1811     6.4860    42.1524 </r>
       <r>    -3.1033     4.7840    42.5246 </r>
       <r>    -3.0255     3.5080    42.7976 </r>
       <r>    -2.9477     3.0200    43.0326 </r>
       <r>    -2.8699     3.4390    43.3001 </r>
       <r>    -2.7921     4.5350    43.6530 </r>
       <r>    -2.7143     5.5654    44.0860 </r>
       <r>    -2.6365     6.0702    44.5583 </r>
       <r>    -2.5586     6.5932    45.0713 </r>
       <r>    -2.4808     7.8743    45.6840 </r>
       <r>    -2.4030     9.7655    46.4438 </r>
       <r>    -2.3252    11.5509    47.3425 </r>
       <r>    -2.2474    12.4757    48.3132 </r>
       <r>    -2.1696    11.7336    49.2261 </r>
       <r>    -2.0918     9.3140    49.9508 </r>
       <r>    -2.0140     6.8591    50.4845 </r>
       <r>    -1.9362     6.1900    50.9661 </r>
       <r>    -1.8584     7.0227    51.5125 </r>
       <r>    -1.7806     7.4607    52.0930 </r>
       <r>    -1.7028     6.6099    52.6073 </r>
       <r>    -1.6250     5.3400    53.0228 </r>
       <r>    -1.5472     4.5468    53.3765 </r>
       <r>    -1.4694     4.0267    53.6898 </r>
       <r>    -1.3916     3.2567    53.9432 </r>
       <r>    -1.3138     2.3201    54.1237 </r>
       <r>    -1.2359     1.6531    54.2524 </r>
       <r>    -1.1581     1.4169    54.3626 </r>
       <r>    -1.0803     1.5586    54.4839 </r>
       <r>    -1.0025     2.0727    54.6451 </r>
       <r>    -0.9247     2.7674    54.8605 </r>
       <r>    -0.8469     3.2233    55.1112 </r>
       <r>    -0.7691     3.4439    55.3792 </r>
       <r>    -0.6913     4.0597    55.6951 </r>
       <r>    -0.6135     5.3780    56.1135 </r>
       <r>    -0.5357     6.7450    56.6383 </r>
       <r>    -0.4579     7.4010    57.2141 </r>
       <r>    -0.3801     7.5014    57.7978 </r>
       <r>    -0.3023     7.7863    58.4036 </r>
       <r>    -0.2245     8.6814    59.0791 </r>
       <r>    -0.1467    10.2598    59.8774 </r>
       <r>    -0.0689    12.5881    60.8568 </r>
       <r>     0.0089    15.3534    62.0514 </r>
       <r>     0.0868    17.6094    63.4215 </r>
       <r>     0.1646    18.5552    64.8652 </r>
       <r>     0.2424    18.2403    66.2844 </r>
       <r>     0.3202    17.5501    67.6499 </r>
       <r>     0.3980    17.6991    69.0270 </r>
       <r>     0.4758    18.9766    70.5035 </r>
       <r>     0.5536    20.1894    72.0743 </r>
       <r>     0.6314    20.3572    73.6582 </r>
       <r>     0.7092    20.0652    75.2194 </r>
       <r>     0.7870    20.1140    76.7844 </r>
       <r>     0.8648    20.0662    78.3457 </r>
       <r>     0.9426    19.1513    79.8357 </r>
       <r>     1.0204    17.6533    81.2093 </r>
       <r>     1.0982    16.4160    82.4865 </r>
       <r>     1.1760    15.6965    83.7078 </r>
       <r>     1.2538    15.5351    84.9165 </r>
       <r>     1.3316    16.3040    86.1851 </r>
       <r>     1.4095    17.8274    87.5722 </r>
       <r>     1.4873    19.0581    89.0550 </r>
       <r>     1.5651    19.5442    90.5756 </r>
       <r>     1.6429    20.4407    92.1661 </r>
       <r>     1.7207    23.2666    93.9763 </r>
       <r>     1.7985    27.7245    96.1335 </r>
       <r>     1.8763    31.4109    98.5774 </r>
       <r>     1.9541    32.2369   101.0856 </r>
       <r>     2.0319    30.8379   103.4850 </r>
       <r>     2.1097    30.0900   105.8262 </r>
       <r>     2.1875    32.5244   108.3568 </r>
       <r>     2.2653    38.5236   111.3541 </r>
       <r>     2.3431    46.3555   114.9608 </r>
       <r>     2.4209    53.2339   119.1027 </r>
       <r>     2.4987    56.5767   123.5047 </r>
       <r>     2.5765    54.6121   127.7539 </r>
       <r>     2.6543    46.8329   131.3978 </r>
       <r>     2.7321    35.5195   134.1614 </r>
       <r>     2.8100    25.6869   136.1600 </r>
       <r>     2.8878    21.3991   137.8249 </r>
       <r>     2.9656    23.4699   139.6510 </r>
       <r>     3.0434    31.6199   142.1112 </r>
       <r>     3.1212    45.7788   145.6731 </r>
       <r>     3.1990    63.6043   150.6219 </r>
       <r>     3.2768    79.0072   156.7691 </r>
       <r>     3.3546    84.9598   163.3795 </r>
       <r>     3.4324    78.0525   169.4524 </r>
       <r>     3.5102    61.4843   174.2363 </r>
       <r>     3.5880    43.7833   177.6429 </r>
       <r>     3.6658    32.4837   180.1703 </r>
       <r>     3.7436    28.4612   182.3847 </r>
       <r>     3.8214    27.5901   184.5314 </r>
       <r>     3.8992    26.7740   186.6146 </r>
       <r>     3.9770    26.0270   188.6396 </r>
       <r>     4.0548    25.8090   190.6477 </r>
       <r>     4.1327    25.4589   192.6286 </r>
       <r>     4.2105    24.5118   194.5357 </r>
       <r>     4.2883    23.6345   196.3746 </r>
       <r>     4.3661    23.4695   198.2007 </r>
       <r>     4.4439    23.4201   200.0229 </r>
       <r>     4.5217    22.5523   201.7776 </r>
       <r>     4.5995    21.1427   203.4226 </r>
       <r>     4.6773    20.3112   205.0030 </r>
       <r>     4.7551    20.5809   206.6043 </r>
       <r>     4.8329    21.4817   208.2757 </r>
       <r>     4.9107    22.2455   210.0065 </r>
       <r>     4.9885    22.4492   211.7532 </r>
       <r>     5.0663    21.9759   213.4630 </r>
       <r>     5.1441    20.8875   215.0882 </r>
       <r>     5.2219    19.7805   216.6272 </r>
       <r>     5.2997    19.6222   218.1540 </r>
       <r>     5.3775    20.5744   219.7548 </r>
       <r>     5.4554    21.5031   221.4278 </r>
       <r>     5.5332    21.1191   223.0710 </r>
       <r>     5.6110    19.1336   224.5597 </r>
       <r>     5.6888    15.9641   225.8018 </r>
       <r>     5.7666    12.0206   226.7371 </r>
       <r>     5.8444     7.8965   227.3515 </r>
       <r>     5.9222     4.5119   227.7026 </r>
       <r>     6.0000     2.3617   227.8863 </r>
       <r>     6.0778     1.1541   227.9761 </r>
       <r>     6.1556     0.4409   228.0104 </r>
       <r>     6.2334     0.0553   228.0147 </r>
       <r>     6.3112    -0.0729   228.0090 </r>
       <r>     6.3890    -0.0692   228.0037 </r>
       <r>     6.4668    -0.0442   228.0002 </r>
       <r>     6.5446    -0.0485   227.9964 </r>
       <r>     6.6224    -0.0883   227.9896 </r>
       <r>     6.7002    -0.1126   227.9808 </r>
       <r>     6.7781     0.0241   227.9827 </r>
       <r>     6.8559     0.5247   228.0235 </r>
       <r>     6.9337     1.5270   228.1423 </r>
       <r>     7.0115     3.0360   228.3785 </r>
       <r>     7.0893     4.9344   228.7625 </r>
       <r>     7.1671     6.9226   229.3011 </r>
       <r>     7.2449     8.5990   229.9701 </r>
       <r>     7.3227     9.9793   230.7466 </r>
       <r>     7.4005    11.6762   231.6551 </r>
       <r>     7.4783    13.9652   232.7416 </r>
       <r>     7.5561    16.1269   233.9964 </r>
       <r>     7.6339    17.4653   235.3553 </r>
       <r>     7.7117    18.3150   236.7803 </r>
       <r>     7.7895    19.2176   238.2756 </r>
       <r>     7.8673    19.9868   239.8306 </r>
       <r>     7.9451    20.4214   241.4195 </r>
       <r>     8.0229    20.9378   243.0486 </r>
       <r>     8.1007    21.7432   244.7404 </r>
       <r>     8.1786    22.2417   246.4709 </r>
       <r>     8.2564    21.8769   248.1731 </r>
       <r>     8.3342    21.1273   249.8169 </r>
       <r>     8.4120    21.1312   251.4610 </r>
       <r>     8.4898    22.2531   253.1924 </r>
       <r>     8.5676    23.4738   255.0188 </r>
       <r>     8.6454    23.5860   256.8540 </r>
       <r>     8.7232    22.6361   258.6152 </r>
       <r>     8.8010    21.6419   260.2990 </r>
       <r>     8.8788    21.2265   261.9506 </r>
       <r>     8.9566    21.2073   263.6006 </r>
       <r>     9.0344    21.2471   265.2538 </r>
       <r>     9.1122    21.3096   266.9118 </r>
       <r>     9.1900    21.5292   268.5869 </r>
       <r>     9.2678    21.9923   270.2980 </r>
       <r>     9.3456    22.7440   272.0677 </r>
       <r>     9.4234    23.6851   273.9105 </r>
       <r>     9.5013    24.3242   275.8030 </r>
       <r>     9.5791    23.9802   277.6688 </r>
       <r>     9.6569    22.3825   279.4103 </r>
       <r>     9.7347    19.9432   280.9620 </r>
       <r>     9.8125    17.5287   282.3259 </r>
       <r>     9.8903    15.9582   283.5675 </r>
       <r>     9.9681    15.2794   284.7563 </r>
       <r>    10.0459    14.4902   285.8838 </r>
       <r>    10.1237    12.4047   286.8489 </r>
       <r>    10.2015     8.8429   287.5369 </r>
       <r>    10.2793     4.8326   287.9129 </r>
       <r>    10.3571     1.7129   288.0462 </r>
       <r>    10.4349     0.1021   288.0542 </r>
       <r>    10.5127    -0.3223   288.0291 </r>
       <r>    10.5905    -0.2394   288.0105 </r>
       <r>    10.6683    -0.0996   288.0027 </r>
       <r>    10.7461    -0.0282   288.0005 </r>
       <r>    10.8240    -0.0057   288.0001 </r>
       <r>    10.9018    -0.0009   288.0000 </r>
       <r>    10.9796    -0.0001   288.0000 </r>
       <r>    11.0574    -0.0000   288.0000 </r>
       <r>    11.1352    -0.0000   288.0000 </r>
       <r>    11.2130    -0.0000   288.0000 </r>
       <r>    11.2908    -0.0000   288.0000 </r>
       <r>    11.3686    -0.0000   288.0000 </r>
       <r>    11.4464    -0.0000   288.0000 </r>
       <r>    11.5242    -0.0000   288.0000 </r>
       <r>    11.6020     0.0000   288.0000 </r>
       <r>    11.6798     0.0000   288.0000 </r>
       <r>    11.7576     0.0000   288.0000 </r>
       <r>    11.8354     0.0000   288.0000 </r>
       <r>    11.9132     0.0000   288.0000 </r>
       <r>    11.9910     0.0000   288.0000 </r>
       <r>    12.0688     0.0000   288.0000 </r>
       <r>    12.1467     0.0000   288.0000 </r>
       <r>    12.2245     0.0000   288.0000 </r>
       <r>    12.3023     0.0000   288.0000 </r>
      </set>
     </set>
    </array>
   </total>
  </dos>
 </calculation>
 <structure name="finalpos" >
  <crystal>
   <varray name="basis" >
    <v>       6.22415293      -3.30245952      -1.90277875 </v>
    <v>       0.00056065       7.04601436       1.90277875 </v>
    <v>       0.01329091      -0.02209988      14.61571708 </v>
   </varray>
   <i name="volume">    641.36264632 </i>
   <varray name="rec_basis" >
    <v>       0.16063393       0.00002665      -0.00014603 </v>
    <v>       0.07532379       0.14187878       0.00014603 </v>
    <v>       0.01110629      -0.01846733       0.06838147 </v>
   </varray>
  </crystal>
  <varray name="positions" >
   <v>       0.44273235       0.04054552       0.62258714 </v>
   <v>       0.04054552       0.44273235       0.37741286 </v>
   <v>       0.55726765       0.95945448       0.37741286 </v>
   <v>       0.95945448       0.55726765       0.62258714 </v>
   <v>       0.44118467       0.02989174       0.77681403 </v>
   <v>       0.02989174       0.44118467       0.22318597 </v>
   <v>       0.55881533       0.97010826       0.22318597 </v>
   <v>       0.97010826       0.55881533       0.77681403 </v>
   <v>       0.77643176       0.22356824       0.59313561 </v>
   <v>       0.22356824       0.77643176       0.40686439 </v>
   <v>       0.89616784       0.10383216       0.20317900 </v>
   <v>       0.10383216       0.89616784       0.79682100 </v>
   <v>       0.65365317       0.34634683       0.95617565 </v>
   <v>       0.34634683       0.65365317       0.04382435 </v>
   <v>       0.52848873       0.47151127       0.35414717 </v>
   <v>       0.47151127       0.52848873       0.64585283 </v>
   <v>       0.17154730       0.35642116       0.98116202 </v>
   <v>       0.35642116       0.17154730       0.01883798 </v>
   <v>       0.82845270       0.64357884       0.01883798 </v>
   <v>       0.64357884       0.82845270       0.98116202 </v>
   <v>       0.76510070       0.72847946       0.57844275 </v>
   <v>       0.72847946       0.76510070       0.42155725 </v>
   <v>       0.23489930       0.27152054       0.42155725 </v>
   <v>       0.27152054       0.23489930       0.57844275 </v>
   <v>       0.22377555       0.45872506       0.82883594 </v>
   <v>       0.45872506       0.22377555       0.17116406 </v>
   <v>       0.77622445       0.54127494       0.17116406 </v>
   <v>       0.54127494       0.77622445       0.82883594 </v>
   <v>       0.28157868       0.71842132       0.57266464 </v>
   <v>       0.71842132       0.28157868       0.42733536 </v>
   <v>       0.38372922       0.61627078       0.20614242 </v>
   <v>       0.61627078       0.38372922       0.79385758 </v>
   <v>       0.15651367       0.84348633       0.96688655 </v>
   <v>       0.84348633       0.15651367       0.03311345 </v>
   <v>       0.03434109       0.96565891       0.35341945 </v>
   <v>       0.96565891       0.03434109       0.64658055 </v>
  </varray>
 </structure>
</modeling>
