     409
 i =        0, time =        0.000, E =      -950.0027565385
  O        12.4158800000        7.1140030000        7.9588590000
  O        12.4158800000        7.1140030000        7.9588590000
  O        13.3572900000        8.6856740000        5.5558660000
  O        13.3572900000        8.6856740000        5.5558660000
  O        13.1462000000        5.4673170000        5.8375370000
  O        13.1462000000        5.4673170000        5.8375370000
  O        9.2291680000        5.1517790000        4.0233860000
  O        9.2291680000        5.1517790000        4.0233860000
  O        10.5972200000        6.9826720000        5.5574960000
  O        10.5972200000        6.9826720000        5.5574960000
  O        12.2592700000        10.8858400000        4.1455320000
  O        12.2592700000        10.8858400000        4.1455320000
  O        15.6904500000        5.5765080000        4.2467200000
  O        15.6904500000        5.5765080000        4.2467200000
  O        0.9379327000        15.6311600000        11.2289900000
  O        -1.7991730000        14.2202700000        11.4715300000
  O        1.1887350000        12.7300600000        11.5678300000
  O        -1.7991730000        14.2202700000        11.4715300000
  O        -3.0335760000        16.4000200000        9.8221480000
  O        3.4160460000        15.9787300000        9.5044970000
  O        -3.0335760000        16.4000200000        9.8221480000
  O        0.9379327000        15.6311600000        11.2289900000
  O        0.0734660000        14.1596500000        2.0359710000
  O        0.0734660000        14.1596500000        2.0359710000
  O        -0.1254631000        10.6386600000        9.7499540000
  O        -0.1254631000        10.6386600000        9.7499540000
  O        10.9648000000        20.6750400000        4.8944810000
  O        9.6509770000        19.2050400000        6.5605190000
  O        12.5741100000        19.8122500000        10.6306000000
  O        10.9648000000        20.6750400000        4.8944810000
  O        11.8903300000        18.0613200000        0.7474348000
  O        12.5741100000        19.8122500000        10.6306000000
  O        9.6509770000        19.2050400000        6.5605190000
  O        22.1045800000        2.5436480000        0.7787574000
  O        -10.9004000000        20.5213500000        4.7407790000
  O        -10.9004000000        20.5213500000        4.7407790000
  O        24.6385400000        0.0539510000        8.5113710000
  O        -8.8218790000        20.3809900000        6.3431230000
  O        23.1133800000        0.8053953000        10.7728900000
  O        23.1133800000        0.8053953000        10.7728900000
  O        -0.5462794000        3.6880100000        6.5077710000
  O        22.1045800000        2.5436480000        0.7787574000
  O        -0.5462794000        3.6880100000        6.5077710000
  O        0.2597371000        1.6320700000        4.7420600000
  O        1.4505820000        0.9562860000        10.7153700000
  O        1.4505820000        0.9562860000        10.7153700000
  O        -0.0206003000        0.0425589000        2.6036210000
  O        0.2597371000        1.6320700000        4.7420600000
  O        3.5501960000        1.2367880000        0.7350920000
  O        -8.8218790000        20.3809900000        6.3431230000
  O        3.4160460000        15.9787300000        9.5044970000
  O        15.7060900000        14.3114000000        7.4752790000
  O        -7.9955100000        15.0918700000        1.6540440000
  O        -6.4240570000        17.3404000000        2.4609810000
  O        -8.7842770000        16.9541400000        6.6967550000
  O        -6.4240570000        17.3404000000        2.4609810000
  O        15.7060900000        14.3114000000        7.4752790000
  O        -8.7842770000        16.9541400000        6.6967550000
  O        13.0808000000        14.0055400000        8.3225040000
  O        13.0808000000        14.0055400000        8.3225040000
  O        11.8512300000        14.3094700000        0.5331833000
  O        11.8512300000        14.3094700000        0.5331833000
  O        -6.3025650000        16.5964700000        5.2766400000
  O        -6.3025650000        16.5964700000        5.2766400000
  O        -5.0022660000        14.7694500000        3.5201280000
  O        -5.0022660000        14.7694500000        3.5201280000
  O        13.9698400000        12.4226900000        10.2480900000
  O        13.9698400000        12.4226900000        10.2480900000
  O        13.6377500000        13.7076300000        2.8436060000
  O        13.6377500000        13.7076300000        2.8436060000
  O        -6.2102360000        16.3088800000        8.6636760000
  O        -6.2102360000        16.3088800000        8.6636760000
  O        4.5459580000        6.6073800000        7.4472170000
  O        4.0751300000        4.5194130000        0.6247060000
  O        3.4531510000        7.2096530000        1.7137790000
  O        3.4531510000        7.2096530000        1.7137790000
  O        0.6703774000        7.3411990000        2.6653340000
  O        1.8465780000        5.3250240000        6.7527630000
  O        0.6703774000        7.3411990000        2.6653340000
  O        4.5459580000        6.6073800000        7.4472170000
  O        1.8465780000        5.3250240000        6.7527630000
  O        6.0538730000        4.2561070000        8.1895280000
  O        6.0538730000        4.2561070000        8.1895280000
  O        6.4046980000        5.5485650000        10.5376800000
  O        6.4046980000        5.5485650000        10.5376800000
  O        1.0287720000        7.7014450000        5.3639710000
  O        1.0287720000        7.7014450000        5.3639710000
  O        2.2409620000        9.9274050000        3.4695920000
  O        2.2409620000        9.9274050000        3.4695920000
  O        8.3859220000        6.3728760000        8.5884550000
  O        8.3859220000        6.3728760000        8.5884550000
  O        6.1217540000        5.1586570000        2.8576950000
  O        6.1217540000        5.1586570000        2.8576950000
  O        1.2577330000        7.8611480000        8.4820280000
  O        1.2577330000        7.8611480000        8.4820280000
  O        17.0106100000        0.5958249000        7.4309150000
  O        19.1261100000        1.1316800000        0.7212356000
  O        19.1261100000        1.1316800000        0.7212356000
  O        4.6381630000        20.9108300000        1.6621950000
  O        4.6381630000        20.9108300000        1.6621950000
  O        5.7652210000        18.5292500000        2.3592110000
  O        6.6494190000        20.3904500000        6.8889990000
  O        5.7652210000        18.5292500000        2.3592110000
  O        17.0106100000        0.5958249000        7.4309150000
  O        6.6494190000        20.3904500000        6.8889990000
  O        18.3970300000        3.1506500000        8.3065520000
  O        18.3970300000        3.1506500000        8.3065520000
  O        17.7442800000        3.2916530000        10.9155300000
  O        17.7442800000        3.2916530000        10.9155300000
  O        5.1391460000        18.2956100000        4.8911040000
  O        5.1391460000        18.2956100000        4.8911040000
  O        2.9411230000        18.3785800000        3.3502400000
  O        2.9411230000        18.3785800000        3.3502400000
  O        15.2362600000        3.0737000000        9.2184010000
  O        15.2362600000        3.0737000000        9.2184010000
  O        17.4270800000        2.8445690000        2.7688510000
  O        17.4270800000        2.8445690000        2.7688510000
  O        5.0298160000        18.7476300000        8.6547100000
  O        5.0298160000        18.7476300000        8.6547100000
  O        9.6890750000        16.2089300000        0.7791067000
  O        8.1895990000        15.8209600000        3.1227150000
  O        8.3215150000        14.9411900000        6.0321100000
  O        9.6890750000        16.2089300000        0.7791067000
  O        8.3215150000        14.9411900000        6.0321100000
  O        8.1895990000        15.8209600000        3.1227150000
  O        6.8925270000        17.3191200000        6.5579570000
  O        9.8850260000        15.1752600000        8.3592990000
  O        11.0699100000        11.7047800000        1.7243750000
  O        11.0699100000        11.7047800000        1.7243750000
  O        6.8925270000        17.3191200000        6.5579570000
  O        9.8850260000        15.1752600000        8.3592990000
  O        -6.4257940000        20.7932600000        1.6497360000
  O        -5.0787110000        18.3615900000        7.1648480000
  O        -5.3306300000        20.7969100000        5.3458060000
  O        -6.4257940000        20.7932600000        1.6497360000
  O        -5.0787110000        18.3615900000        7.1648480000
  O        5.9825160000        0.8915879000        7.4000580000
  O        7.4232940000        3.0728400000        0.9453845000
  O        7.4232940000        3.0728400000        0.9453845000
  O        5.9825160000        0.8915879000        7.4000580000
  O        6.8564150000        0.8791211000        11.0614300000
  O        -2.3981940000        6.1751270000        2.5344550000
  O        21.2378800000        5.4471120000        11.4149400000
  O        -3.9710120000        7.6298690000        7.1733480000
  O        -2.3981940000        6.1751270000        2.5344550000
  O        -1.1122900000        8.0240760000        6.6746310000
  O        21.6869900000        4.8729960000        6.7490370000
  O        18.6022900000        5.2033650000        0.8094978000
  O        18.6022900000        5.2033650000        0.8094978000
  O        -1.1122900000        8.0240760000        6.6746310000
  O        12.4158800000        7.1140030000        7.9588590000
  H        11.4970600000        7.1449550000        7.6281660000
  H        12.9522300000        7.6556620000        7.3290290000
  H        13.2833300000        9.6292780000        5.2236600000
  H        12.4568300000        8.3748650000        5.3765470000
  H        13.9545700000        5.1216870000        5.3618750000
  H        13.4983900000        6.3193550000        6.1400500000
  H        8.5676020000        5.6317490000        3.4138170000
  H        8.9820890000        4.2341830000        4.1765060000
  H        10.0600000000        6.4837870000        4.9265020000
  H        11.4326500000        6.4328450000        5.6659030000
  H        11.3765600000        11.2561900000        4.1983970000
  H        12.4799200000        11.0152400000        3.2263470000
  H        16.2865000000        6.3200000000        4.4550330000
  H        16.1070500000        5.1047060000        3.5406210000
  H        1.7956980000        15.9686200000        10.8559100000
  H        -0.9719355000        14.6940000000        11.2681100000
  H        0.6677713000        11.9665800000        11.1611000000
  H        -2.4272330000        14.7565500000        10.9633900000
  H        -3.0874340000        17.1935900000        9.2884990000
  H        3.6216760000        16.0924300000        8.5801880000
  H        -3.7339850000        15.9752900000        9.3355410000
  H        1.0532200000        14.6400500000        11.1880000000
  H        -0.8840742000        14.2232800000        1.6973600000
  H        0.4434022000        14.9259300000        1.6186460000
  H        -1.0465180000        10.2977500000        9.7438990000
  H        0.1935929000        10.4957200000        8.8768800000
  H        11.7890600000        20.6290400000        4.4152100000
  H        9.3399880000        19.2235200000        5.6386550000
  H        12.7962400000        19.2521100000        9.9213550000
  H        10.2871000000        20.6365600000        4.2183080000
  H        12.6145600000        18.6799300000        0.9201168000
  H        11.8197100000        20.3334900000        10.2974600000
  H        10.0243900000        20.1041500000        6.7144540000
  H        21.5321200000        2.3517030000        0.0168839000
  H        -11.1246400000        21.4544200000        4.4008880000
  H        -10.4231200000        20.1615400000        4.0336330000
  H        23.8445600000        0.1665816000        8.0600460000
  H        -9.5721750000        20.1028600000        6.9269590000
  H        22.6197100000        1.0074430000        9.9679320000
  H        24.0701700000        0.7654157000        10.5014600000
  H        -0.3611252000        3.7649600000        5.5912640000
  H        22.5326000000        1.6604430000        0.9357199000
  H        0.0173737000        2.9309770000        6.7758180000
  H        0.5758147000        1.9951110000        3.9390830000
  H        1.2864000000        0.0954352000        10.2694000000
  H        1.8182840000        1.5037490000        10.0267300000
  H        0.1523923000        0.8331231000        2.1208560000
  H        -0.5610471000        1.0568800000        4.5754330000
  H        2.5391690000        1.2468900000        0.8395396000
  H        -9.1763030000        20.1222000000        5.5096390000
  H        4.1734160000        15.3246500000        9.8001400000
  H        15.8639400000        15.1720400000        7.0359470000
  H        -7.4895620000        14.5207600000        1.0512290000
  H        -6.6399880000        16.3619700000        2.3552520000
  H        -8.7175120000        17.5568400000        5.9336000000
  H        -7.2112110000        17.6763500000        2.9245320000
  H        16.2455500000        13.6599100000        6.9703910000
  H        -9.4494420000        17.4149800000        7.1966360000
  H        12.7205400000        14.8470400000        8.7358700000
  H        13.9409200000        14.3629900000        7.9901810000
  H        12.4109200000        14.5162500000        1.2796870000
  H        12.5376200000        13.8419700000        0.0003493000
  H        -5.8108890000        16.5010400000        4.3915720000
  H        -6.9560650000        15.8867300000        5.3005110000
  H        -4.9008780000        14.5267800000        2.5613530000
  H        -4.2482470000        14.2768000000        3.9248770000
  H        13.5785500000        12.7044800000        9.3790900000
  H        13.7066200000        11.4388900000        10.2755700000
  H        14.3361700000        14.0622800000        2.2553460000
  H        14.1032400000        13.4559300000        3.5855680000
  H        -7.0148880000        16.2061400000        8.1296780000
  H        -6.1367700000        15.6907000000        9.4175150000
  H        3.8119180000        6.5542890000        6.8626830000
  H        3.7596730000        4.0336400000        1.3958950000
  H        3.6178290000        6.3548210000        1.2021370000
  H        3.6208070000        7.9105860000        1.0852300000
  H        1.4247690000        6.9239920000        2.2298450000
  H        1.2005240000        4.9217890000        6.0514390000
  H        0.1597141000        6.5134490000        2.8597910000
  H        5.0492990000        7.1804210000        6.8694370000
  H        1.9336950000        4.6088300000        7.3584890000
  H        5.5617000000        3.4500670000        8.5529410000
  H        5.3278990000        4.9194240000        8.1038280000
  H        6.4421750000        5.0627920000        9.7002340000
  H        5.4490190000        5.4112160000        10.7864000000
  H        0.6748449000        7.6167570000        4.4690060000
  H        1.5244200000        6.8739100000        5.5438720000
  H        1.5941630000        9.2791340000        3.1323790000
  H        2.6854810000        10.2665900000        2.7023630000
  H        8.3707820000        6.3320370000        9.5808820000
  H        7.4961400000        6.2507880000        8.2929280000
  H        5.5205000000        5.3127720000        2.1240000000
  H        5.9744500000        5.7667340000        3.6011710000
  H        1.6521170000        7.2438290000        7.8006150000
  H        2.0873280000        8.0788870000        8.9651420000
  H        16.2832700000        0.7065211000        6.8296140000
  H        19.8620100000        0.7894895000        1.2699060000
  H        19.5711200000        1.5985390000        0.0000000000
  H        5.3287680000        21.3349200000        1.1371630000
  H        3.8719820000        20.6778300000        1.0876750000
  H        6.7567640000        18.7695600000        2.1881590000
  H        7.0217130000        20.1385400000        5.9890260000
  H        5.2848370000        19.3888100000        2.1136370000
  H        17.6668400000        0.0477176000        6.9178760000
  H        7.3416380000        20.9342600000        7.2738360000
  H        17.9655400000        2.2648650000        8.3192440000
  H        19.3868400000        2.9318370000        8.3496350000
  H        17.7996200000        2.3450390000        11.1650600000
  H        18.0820700000        3.2907930000        9.9158830000
  H        5.9323810000        18.3076400000        4.2575490000
  H        4.8880960000        19.3009000000        5.0526080000
  H        2.9156830000        18.4858300000        2.4146370000
  H        3.8779380000        18.1883500000        3.5570400000
  H        15.1364800000        3.0509160000        8.2373860000
  H        15.9998300000        3.7144480000        9.3257600000
  H        16.8757100000        2.3499830000        3.4058990000
  H        17.8351200000        2.1692150000        2.2900450000
  H        5.1423730000        19.4313700000        8.0298880000
  H        4.6164460000        19.2607100000        9.3828160000
  H        10.2328700000        15.5176700000        0.4714696000
  H        7.4873290000        16.5373600000        2.9690130000
  H        7.8483300000        15.7762500000        6.2883960000
  H        10.4023900000        16.9272700000        0.9407268000
  H        8.4029240000        15.0641400000        5.1231710000
  H        8.6368490000        15.8544900000        2.2700170000
  H        5.9866120000        17.4837600000        6.1647360000
  H        9.3796990000        14.9925600000        7.5196430000
  H        11.4934600000        10.8993800000        1.2625700000
  H        11.5244800000        12.5067300000        1.3850660000
  H        7.0496350000        18.0176800000        7.2767470000
  H        10.7351000000        15.6253600000        8.1467950000
  H        -6.4337370000        20.0680400000        2.2674560000
  H        -5.2674640000        18.1950100000        8.0726220000
  H        -5.3378270000        19.9801200000        5.8851610000
  H        -7.3601280000        21.0574200000        1.7601220000
  H        -5.4467850000        17.6105800000        6.6706720000
  H        5.5595900000        1.4568910000        8.0975400000
  H        7.2625870000        3.4019190000        1.8270760000
  H        7.2993200000        3.9255230000        0.5193269000
  H        5.1833250000        0.4230099000        7.1117510000
  H        7.2820710000        1.6653860000        11.5520000000
  H        -1.9166940000        5.3450130000        2.3554850000
  H        21.7882600000        4.6163530000        11.6282600000
  H        -3.1013330000        7.9402480000        6.8576760000
  H        -2.6703410000        6.3911460000        1.6241190000
  H        -0.2898929000        8.0096750000        7.2562540000
  H        21.7845400000        4.1172530000        7.4021540000
  H        18.4393500000        4.5952890000        0.0085002000
  H        18.3822600000        4.6752480000        1.6670860000
  H        -0.8499472000        7.7119770000        5.7751240000
  H        12.7900000000        6.1900000000        7.5700000000
